
     Program BANDS v.7.5 starts on 28Feb2026 at 18:52:29 

     This program is part of the open-source Quantum ESPRESSO suite
     for quantum simulation of materials; please cite
         "P. Giannozzi et al., J. Phys.:Condens. Matter 21 395502 (2009);
         "P. Giannozzi et al., J. Phys.:Condens. Matter 29 465901 (2017);
         "P. Giannozzi et al., J. Chem. Phys. 152 154105 (2020);
          URL http://www.quantum-espresso.org", 
     in publications or presentations arising from this work. More details at
     http://www.quantum-espresso.org/quote

     Parallel version (MPI), running on     1 processors

     MPI processes distributed on     1 nodes
     5709 MiB available memory on the printing compute node when the environment starts
 

     Reading xml data from directory:

     ./tmp/silicon.save/

     IMPORTANT: XC functional enforced from input :
     Exchange-correlation= PZ
                           (   1   1   0   0   0   0   0)
     Any further DFT definition will be discarded
     Please, verify this is what you really want

 
     G-vector sticks info
     --------------------
     sticks:   dense  smooth     PW     G-vecs:    dense   smooth      PW
     Sum        1417     721    211                35749    12627    2085
 
     Using Slab Decomposition
 
     Reading collected, re-writing distributed wavefunctions
     high-symmetry point:  0.5000 0.5000 0.5000   x coordinate   0.0000
     high-symmetry point:  0.0000 0.0000 0.0000   x coordinate   0.8660
     high-symmetry point:  1.0000 0.0000 0.0000   x coordinate   1.8660
     high-symmetry point:  1.0000 0.2500 0.2500   x coordinate   2.2196
     high-symmetry point:  0.0000 0.0000 0.0000   x coordinate   3.2802

     Plottable bands (eV) written to file si_bands.dat.gnu
     Bands written to file si_bands.dat

 **************************************************************************

                    xk=(   0.50000,   0.50000,   0.50000  )

     zone border point and non-symmorphic group 
     symmetry decomposition not available

 **************************************************************************

 **************************************************************************

                    xk=(   0.47500,   0.47500,   0.47500  )

     point group C_3v (3m)  
     there are  3 classes
     the character table:

       E     2C3   3s_v 
A_1    1.00  1.00  1.00
A_2    1.00  1.00 -1.00
E      2.00 -1.00  0.00

     the symmetry operations in each class and the name of the first element:

     E        1
                                                                 
     2C3      2    3
                                                                 
     3s_v     4    5    6
                                                                 

     Band symmetry, C_3v (3m)   point group:

     e(  1 -  1) =     -3.48196  eV     1   --> A_1  L_1       
     e(  2 -  2) =     -0.78956  eV     1   --> A_1  L_1       
     e(  3 -  4) =      4.99966  eV     2   --> E    L_3       
     e(  5 -  5) =      7.76009  eV     1   --> A_1  L_1       
     e(  6 -  7) =      9.54331  eV     2   --> E    L_3       
     e(  8 -  8) =     13.80427  eV     1   --> A_1  L_1       

 **************************************************************************

 **************************************************************************

                    xk=(   0.45000,   0.45000,   0.45000  )

     Band symmetry, C_3v (3m)   point group:

     e(  1 -  1) =     -3.58512  eV     1   --> A_1  L_1       
     e(  2 -  2) =     -0.63958  eV     1   --> A_1  L_1       
     e(  3 -  4) =      5.01322  eV     2   --> E    L_3       
     e(  5 -  5) =      7.77544  eV     1   --> A_1  L_1       
     e(  6 -  7) =      9.55921  eV     2   --> E    L_3       
     e(  8 -  8) =     13.82926  eV     1   --> A_1  L_1       

 **************************************************************************

 **************************************************************************

                    xk=(   0.42500,   0.42500,   0.42500  )

     Band symmetry, C_3v (3m)   point group:

     e(  1 -  1) =     -3.73540  eV     1   --> A_1  L_1       
     e(  2 -  2) =     -0.41138  eV     1   --> A_1  L_1       
     e(  3 -  4) =      5.03579  eV     2   --> E    L_3       
     e(  5 -  5) =      7.80094  eV     1   --> A_1  L_1       
     e(  6 -  7) =      9.58444  eV     2   --> E    L_3       
     e(  8 -  8) =     13.86870  eV     1   --> A_1  L_1       

 **************************************************************************

 **************************************************************************

                    xk=(   0.40000,   0.40000,   0.40000  )

     Band symmetry, C_3v (3m)   point group:

     e(  1 -  1) =     -3.91370  eV     1   --> A_1  L_1       
     e(  2 -  2) =     -0.12425  eV     1   --> A_1  L_1       
     e(  3 -  4) =      5.06736  eV     2   --> E    L_3       
     e(  5 -  5) =      7.83652  eV     1   --> A_1  L_1       
     e(  6 -  7) =      9.61702  eV     2   --> E    L_3       
     e(  8 -  8) =     13.91815  eV     1   --> A_1  L_1       

 **************************************************************************

 **************************************************************************

                    xk=(   0.37500,   0.37500,   0.37500  )

     Band symmetry, C_3v (3m)   point group:

     e(  1 -  1) =     -4.10544  eV     1   --> A_1  L_1       
     e(  2 -  2) =      0.20691  eV     1   --> A_1  L_1       
     e(  3 -  4) =      5.10787  eV     2   --> E    L_3       
     e(  5 -  5) =      7.88198  eV     1   --> A_1  L_1       
     e(  6 -  7) =      9.65398  eV     2   --> E    L_3       
     e(  8 -  8) =     13.96814  eV     1   --> A_1  L_1       

 **************************************************************************

 **************************************************************************

                    xk=(   0.35000,   0.35000,   0.35000  )

     Band symmetry, C_3v (3m)   point group:

     e(  1 -  1) =     -4.30077  eV     1   --> A_1  L_1       
     e(  2 -  2) =      0.57187  eV     1   --> A_1  L_1       
     e(  3 -  4) =      5.15720  eV     2   --> E    L_3       
     e(  5 -  5) =      7.93713  eV     1   --> A_1  L_1       
     e(  6 -  7) =      9.69120  eV     2   --> E    L_3       
     e(  8 -  8) =     13.99718  eV     1   --> A_1  L_1       

 **************************************************************************

 **************************************************************************

                    xk=(   0.32500,   0.32500,   0.32500  )

     Band symmetry, C_3v (3m)   point group:

     e(  1 -  1) =     -4.49324  eV     1   --> A_1  L_1       
     e(  2 -  2) =      0.96367  eV     1   --> A_1  L_1       
     e(  3 -  4) =      5.21520  eV     2   --> E    L_3       
     e(  5 -  5) =      8.00160  eV     1   --> A_1  L_1       
     e(  6 -  7) =      9.72327  eV     2   --> E    L_3       
     e(  8 -  8) =     13.95817  eV     1   --> A_1  L_1       

 **************************************************************************

 **************************************************************************

                    xk=(   0.30000,   0.30000,   0.30000  )

     Band symmetry, C_3v (3m)   point group:

     e(  1 -  1) =     -4.67864  eV     1   --> A_1  L_1       
     e(  2 -  2) =      1.37738  eV     1   --> A_1  L_1       
     e(  3 -  4) =      5.28159  eV     2   --> E    L_3       
     e(  5 -  5) =      8.07487  eV     1   --> A_1  L_1       
     e(  6 -  7) =      9.74360  eV     2   --> E    L_3       
     e(  8 -  8) =     13.78745  eV     1   --> A_1  L_1       

 **************************************************************************

 **************************************************************************

                    xk=(   0.27500,   0.27500,   0.27500  )

     Band symmetry, C_3v (3m)   point group:

     e(  1 -  1) =     -4.85414  eV     1   --> A_1  L_1       
     e(  2 -  2) =      1.80935  eV     1   --> A_1  L_1       
     e(  3 -  4) =      5.35598  eV     2   --> E    L_3       
     e(  5 -  5) =      8.15630  eV     1   --> A_1  L_1       
     e(  6 -  7) =      9.74493  eV     2   --> E    L_3       
     e(  8 -  8) =     13.48392  eV     1   --> A_1  L_1       

 **************************************************************************

 **************************************************************************

                    xk=(   0.25000,   0.25000,   0.25000  )

     Band symmetry, C_3v (3m)   point group:

     e(  1 -  1) =     -5.01782  eV     1   --> A_1  L_1       
     e(  2 -  2) =      2.25648  eV     1   --> A_1  L_1       
     e(  3 -  4) =      5.43778  eV     2   --> E    L_3       
     e(  5 -  5) =      8.24480  eV     1   --> A_1  L_1       
     e(  6 -  7) =      9.72048  eV     2   --> E    L_3       
     e(  8 -  8) =     13.10480  eV     1   --> A_1  L_1       

 **************************************************************************

 **************************************************************************

                    xk=(   0.22500,   0.22500,   0.22500  )

     Band symmetry, C_3v (3m)   point group:

     e(  1 -  1) =     -5.16834  eV     1   --> A_1  L_1       
     e(  2 -  2) =      2.71592  eV     1   --> A_1  L_1       
     e(  3 -  4) =      5.52615  eV     2   --> E    L_3       
     e(  5 -  5) =      8.33903  eV     1   --> A_1  L_1       
     e(  6 -  7) =      9.66586  eV     2   --> E    L_3       
     e(  8 -  8) =     12.69083  eV     1   --> A_1  L_1       

 **************************************************************************

 **************************************************************************

                    xk=(   0.20000,   0.20000,   0.20000  )

     Band symmetry, C_3v (3m)   point group:

     e(  1 -  1) =     -5.30470  eV     1   --> A_1  L_1       
     e(  2 -  2) =      3.18468  eV     1   --> A_1  L_1       
     e(  3 -  4) =      5.61990  eV     2   --> E    L_3       
     e(  5 -  5) =      8.43704  eV     1   --> A_1  L_1       
     e(  6 -  7) =      9.58077  eV     2   --> E    L_3       
     e(  8 -  8) =     12.26036  eV     1   --> A_1  L_1       

 **************************************************************************

 **************************************************************************

                    xk=(   0.17500,   0.17500,   0.17500  )

     Band symmetry, C_3v (3m)   point group:

     e(  1 -  1) =     -5.42621  eV     1   --> A_1  L_1       
     e(  2 -  2) =      3.65927  eV     1   --> A_1  L_1       
     e(  3 -  4) =      5.71738  eV     2   --> E    L_3       
     e(  5 -  5) =      8.53612  eV     1   --> A_1  L_1       
     e(  6 -  7) =      9.46961  eV     2   --> E    L_3       
     e(  8 -  8) =     11.82239  eV     1   --> A_1  L_1       

 **************************************************************************

 **************************************************************************

                    xk=(   0.15000,   0.15000,   0.15000  )

     Band symmetry, C_3v (3m)   point group:

     e(  1 -  1) =     -5.53233  eV     1   --> A_1  L_1       
     e(  2 -  2) =      4.13509  eV     1   --> A_1  L_1       
     e(  3 -  4) =      5.81632  eV     2   --> E    L_3       
     e(  5 -  5) =      8.63245  eV     1   --> A_1  L_1       
     e(  6 -  7) =      9.34055  eV     2   --> E    L_3       
     e(  8 -  8) =     11.38342  eV     1   --> A_1  L_1       

 **************************************************************************

 **************************************************************************

                    xk=(   0.12500,   0.12500,   0.12500  )

     Band symmetry, C_3v (3m)   point group:

     e(  1 -  1) =     -5.62267  eV     1   --> A_1  L_1       
     e(  2 -  2) =      4.60573  eV     1   --> A_1  L_1       
     e(  3 -  4) =      5.91364  eV     2   --> E    L_3       
     e(  5 -  5) =      8.72046  eV     1   --> A_1  L_1       
     e(  6 -  7) =      9.20388  eV     2   --> E    L_3       
     e(  8 -  8) =     10.95145  eV     1   --> A_1  L_1       

 **************************************************************************

 **************************************************************************

                    xk=(   0.10000,   0.10000,   0.10000  )

     Band symmetry, C_3v (3m)   point group:

     e(  1 -  1) =     -5.69693  eV     1   --> A_1  L_1       
     e(  2 -  2) =      5.06126  eV     1   --> A_1  L_1       
     e(  3 -  4) =      6.00529  eV     2   --> E    L_3       
     e(  5 -  5) =      8.79204  eV     1   --> A_1  L_1       
     e(  6 -  7) =      9.07061  eV     2   --> E    L_3       
     e(  8 -  8) =     10.53948  eV     1   --> A_1  L_1       

 **************************************************************************

 **************************************************************************

                    xk=(   0.07500,   0.07500,   0.07500  )

     Band symmetry, C_3v (3m)   point group:

     e(  1 -  1) =     -5.75490  eV     1   --> A_1  L_1       
     e(  2 -  2) =      5.48539  eV     1   --> A_1  L_1       
     e(  3 -  4) =      6.08618  eV     2   --> E    L_3       
     e(  5 -  5) =      8.83519  eV     1   --> A_1  L_1       
     e(  6 -  7) =      8.95163  eV     2   --> E    L_3       
     e(  8 -  8) =     10.17019  eV     1   --> A_1  L_1       

 **************************************************************************

 **************************************************************************

                    xk=(   0.05000,   0.05000,   0.05000  )

     Band symmetry, C_3v (3m)   point group:

     e(  1 -  1) =     -5.79642  eV     1   --> A_1  L_1       
     e(  2 -  2) =      5.85019  eV     1   --> A_1  L_1       
     e(  3 -  4) =      6.15043  eV     2   --> E    L_3       
     e(  5 -  5) =      8.83634  eV     1   --> A_1  L_1       
     e(  6 -  7) =      8.85723  eV     2   --> E    L_3       
     e(  8 -  8) =      9.87938  eV     1   --> A_1  L_1       

 **************************************************************************

 **************************************************************************

                    xk=(   0.02500,   0.02500,   0.02500  )

     Band symmetry, C_3v (3m)   point group:

     e(  1 -  1) =     -5.82138  eV     1   --> A_1  L_1       
     e(  2 -  2) =      6.10986  eV     1   --> A_1  L_1       
     e(  3 -  4) =      6.19208  eV     2   --> E    L_3       
     e(  5 -  6) =      8.79634  eV     2   --> E    L_3       
     e(  7 -  7) =      8.80009  eV     1   --> A_1  L_1       
     e(  8 -  8) =      9.70332  eV     1   --> A_1  L_1       

 **************************************************************************

 **************************************************************************

                    xk=(   0.00000,   0.00000,   0.00000  )

     point group O_h (m-3m) 
     there are 10 classes
     the character table:

       E     8C3   3C2   6C4   6C2'  i     8S6   3s_h  6S4   6s_d 
A_1g   1.00  1.00  1.00  1.00  1.00  1.00  1.00  1.00  1.00  1.00
A_2g   1.00  1.00  1.00 -1.00 -1.00  1.00  1.00  1.00 -1.00 -1.00
E_g    2.00 -1.00  2.00  0.00  0.00  2.00 -1.00  2.00  0.00  0.00
T_1g   3.00  0.00 -1.00  1.00 -1.00  3.00  0.00 -1.00  1.00 -1.00
T_2g   3.00  0.00 -1.00 -1.00  1.00  3.00  0.00 -1.00 -1.00  1.00
A_1u   1.00  1.00  1.00  1.00  1.00 -1.00 -1.00 -1.00 -1.00 -1.00
A_2u   1.00  1.00  1.00 -1.00 -1.00 -1.00 -1.00 -1.00  1.00  1.00
E_u    2.00 -1.00  2.00  0.00  0.00 -2.00  1.00 -2.00  0.00  0.00
T_1u   3.00  0.00 -1.00  1.00 -1.00 -3.00  0.00  1.00 -1.00  1.00
T_2u   3.00  0.00 -1.00 -1.00  1.00 -3.00  0.00  1.00  1.00 -1.00

     the symmetry operations in each class and the name of the first element:

     E        1
                                                                 
     8C3     17   19   20   18   24   21   22   23
                                                                 
     3C2      2    4    3
                                                                 
     6C4      7    8   15   16   12   11
                                                                 
     6C2'     5    6   14   13   10    9
                                                                 
     i       25
                                                                 
     8S6     41   43   44   42   48   45   46   47
                                                                 
     3s_h    26   28   27
                                                                 
     6S4     31   32   39   40   36   35
                                                                 
     6s_d    29   30   38   37   34   33
                                                                 

     Band symmetry, O_h (m-3m)  point group:

     e(  1 -  1) =     -5.82971  eV     1   --> A_1g G_1   G_1+
     e(  2 -  4) =      6.20655  eV     3   --> T_2g G_25' G_5+
     e(  5 -  7) =      8.77528  eV     3   --> T_1u G_15  G_4-
     e(  8 -  8) =      9.64798  eV     1   --> A_2u G_2'  G_2-

 **************************************************************************

 **************************************************************************

                    xk=(   0.03333,   0.00000,   0.00000  )

     point group C_4v (4mm) 
     there are  5 classes
     the character table:

       E     2C4   C2    2s_v  2s_d 
A_1    1.00  1.00  1.00  1.00  1.00
A_2    1.00  1.00  1.00 -1.00 -1.00
B_1    1.00 -1.00  1.00  1.00 -1.00
B_2    1.00 -1.00  1.00 -1.00  1.00
E      2.00  0.00 -2.00  0.00  0.00

     the symmetry operations in each class and the name of the first element:

     E        1
                                                                 
     2C4      3    4
                                                                 
     C2       2
                                                                 
     2s_v     5    6
                                                                 
     2s_d     7    8
                                                                 

     Band symmetry, C_4v (4mm)  point group:

     e(  1 -  1) =     -5.82477  eV     1   --> A_1  G_1 D_1   
     e(  2 -  2) =      6.17399  eV     1   --> B_2  G_4 D_2'  
     e(  3 -  4) =      6.18498  eV     2   --> E    G_5 D_5   
     e(  5 -  5) =      8.76241  eV     1   --> A_1  G_1 D_1   
     e(  6 -  7) =      8.80277  eV     2   --> E    G_5 D_5   
     e(  8 -  8) =      9.67946  eV     1   --> B_2  G_4 D_2'  

 **************************************************************************

 **************************************************************************

                    xk=(   0.06667,   0.00000,   0.00000  )

     Band symmetry, C_4v (4mm)  point group:

     e(  1 -  1) =     -5.80996  eV     1   --> A_1  G_1 D_1   
     e(  2 -  2) =      6.07993  eV     1   --> B_2  G_4 D_2'  
     e(  3 -  4) =      6.12301  eV     2   --> E    G_5 D_5   
     e(  5 -  5) =      8.72456  eV     1   --> A_1  G_1 D_1   
     e(  6 -  7) =      8.88253  eV     2   --> E    G_5 D_5   
     e(  8 -  8) =      9.77053  eV     1   --> B_2  G_4 D_2'  

 **************************************************************************

 **************************************************************************

                    xk=(   0.10000,   0.00000,   0.00000  )

     Band symmetry, C_4v (4mm)  point group:

     e(  1 -  1) =     -5.78531  eV     1   --> A_1  G_1 D_1   
     e(  2 -  2) =      5.93350  eV     1   --> B_2  G_4 D_2'  
     e(  3 -  4) =      6.02750  eV     2   --> E    G_5 D_5   
     e(  5 -  5) =      8.66380  eV     1   --> A_1  G_1 D_1   
     e(  6 -  7) =      9.00765  eV     2   --> E    G_5 D_5   
     e(  8 -  8) =      9.90961  eV     1   --> B_2  G_4 D_2'  

 **************************************************************************

 **************************************************************************

                    xk=(   0.13333,   0.00000,   0.00000  )

     Band symmetry, C_4v (4mm)  point group:

     e(  1 -  1) =     -5.75082  eV     1   --> A_1  G_1 D_1   
     e(  2 -  2) =      5.74580  eV     1   --> B_2  G_4 D_2'  
     e(  3 -  4) =      5.90683  eV     2   --> E    G_5 D_5   
     e(  5 -  5) =      8.58317  eV     1   --> A_1  G_1 D_1   
     e(  6 -  7) =      9.16965  eV     2   --> E    G_5 D_5   
     e(  8 -  8) =     10.08139  eV     1   --> B_2  G_4 D_2'  

 **************************************************************************

 **************************************************************************

                    xk=(   0.16667,   0.00000,   0.00000  )

     Band symmetry, C_4v (4mm)  point group:

     e(  1 -  1) =     -5.70651  eV     1   --> A_1  G_1 D_1   
     e(  2 -  2) =      5.52713  eV     1   --> B_2  G_4 D_2'  
     e(  3 -  4) =      5.76884  eV     2   --> E    G_5 D_5   
     e(  5 -  5) =      8.48626  eV     1   --> A_1  G_1 D_1   
     e(  6 -  7) =      9.36063  eV     2   --> E    G_5 D_5   
     e(  8 -  8) =     10.26815  eV     1   --> B_2  G_4 D_2'  

 **************************************************************************

 **************************************************************************

                    xk=(   0.20000,   0.00000,   0.00000  )

     Band symmetry, C_4v (4mm)  point group:

     e(  1 -  1) =     -5.65241  eV     1   --> A_1  G_1 D_1   
     e(  2 -  2) =      5.28577  eV     1   --> B_2  G_4 D_2'  
     e(  3 -  4) =      5.61989  eV     2   --> E    G_5 D_5   
     e(  5 -  5) =      8.37677  eV     1   --> A_1  G_1 D_1   
     e(  6 -  7) =      9.57411  eV     2   --> E    G_5 D_5   
     e(  8 -  8) =     10.44804  eV     1   --> B_2  G_4 D_2'  

 **************************************************************************

 **************************************************************************

                    xk=(   0.23333,   0.00000,   0.00000  )

     Band symmetry, C_4v (4mm)  point group:

     e(  1 -  1) =     -5.58856  eV     1   --> A_1  G_1 D_1   
     e(  2 -  2) =      5.02791  eV     1   --> B_2  G_4 D_2'  
     e(  3 -  4) =      5.46481  eV     2   --> E    G_5 D_5   
     e(  5 -  5) =      8.25820  eV     1   --> A_1  G_1 D_1   
     e(  6 -  7) =      9.80512  eV     2   --> E    G_5 D_5   
     e(  8 -  8) =     10.59209  eV     1   --> B_2  G_4 D_2'  

 **************************************************************************

 **************************************************************************

                    xk=(   0.26667,   0.00000,   0.00000  )

     Band symmetry, C_4v (4mm)  point group:

     e(  1 -  1) =     -5.51499  eV     1   --> A_1  G_1 D_1   
     e(  2 -  2) =      4.75803  eV     1   --> B_2  G_4 D_2'  
     e(  3 -  4) =      5.30717  eV     2   --> E    G_5 D_5   
     e(  5 -  5) =      8.13374  eV     1   --> A_1  G_1 D_1   
     e(  6 -  7) =     10.04996  eV     2   --> E    G_5 D_5   
     e(  8 -  8) =     10.66387  eV     1   --> B_2  G_4 D_2'  

 **************************************************************************

 **************************************************************************

                    xk=(   0.30000,   0.00000,   0.00000  )

     Band symmetry, C_4v (4mm)  point group:

     e(  1 -  1) =     -5.43174  eV     1   --> A_1  G_1 D_1   
     e(  2 -  2) =      4.47934  eV     1   --> B_2  G_4 D_2'  
     e(  3 -  4) =      5.14959  eV     2   --> E    G_5 D_5   
     e(  5 -  5) =      8.00617  eV     1   --> A_1  G_1 D_1   
     e(  6 -  7) =     10.30586  eV     2   --> E    G_5 D_5   
     e(  8 -  8) =     10.63449  eV     1   --> B_2  G_4 D_2'  

 **************************************************************************

 **************************************************************************

                    xk=(   0.33333,   0.00000,   0.00000  )

     Band symmetry, C_4v (4mm)  point group:

     e(  1 -  1) =     -5.33887  eV     1   --> A_1  G_1 D_1   
     e(  2 -  2) =      4.19412  eV     1   --> B_2  G_4 D_2'  
     e(  3 -  4) =      4.99401  eV     2   --> E    G_5 D_5   
     e(  5 -  5) =      7.87786  eV     1   --> A_1  G_1 D_1   
     e(  6 -  6) =     10.50637  eV     1   --> B_2  G_4 D_2'  
     e(  7 -  8) =     10.57073  eV     2   --> E    G_5 D_5   

 **************************************************************************

 **************************************************************************

                    xk=(   0.36667,   0.00000,   0.00000  )

     Band symmetry, C_4v (4mm)  point group:

     e(  1 -  1) =     -5.23645  eV     1   --> A_1  G_1 D_1   
     e(  2 -  2) =      3.90403  eV     1   --> B_2  G_4 D_2'  
     e(  3 -  4) =      4.84189  eV     2   --> E    G_5 D_5   
     e(  5 -  5) =      7.75079  eV     1   --> A_1  G_1 D_1   
     e(  6 -  6) =     10.30844  eV     1   --> B_2  G_4 D_2'  
     e(  7 -  8) =     10.84299  eV     2   --> E    G_5 D_5   

 **************************************************************************

 **************************************************************************

                    xk=(   0.40000,   0.00000,   0.00000  )

     Band symmetry, C_4v (4mm)  point group:

     e(  1 -  1) =     -5.12453  eV     1   --> A_1  G_1 D_1   
     e(  2 -  2) =      3.61028  eV     1   --> B_2  G_4 D_2'  
     e(  3 -  4) =      4.69431  eV     2   --> E    G_5 D_5   
     e(  5 -  5) =      7.62664  eV     1   --> A_1  G_1 D_1   
     e(  6 -  6) =     10.07102  eV     1   --> B_2  G_4 D_2'  
     e(  7 -  8) =     11.12141  eV     2   --> E    G_5 D_5   

 **************************************************************************

 **************************************************************************

                    xk=(   0.43333,   0.00000,   0.00000  )

     Band symmetry, C_4v (4mm)  point group:

     e(  1 -  1) =     -5.00318  eV     1   --> A_1  G_1 D_1   
     e(  2 -  2) =      3.31383  eV     1   --> B_2  G_4 D_2'  
     e(  3 -  4) =      4.55215  eV     2   --> E    G_5 D_5   
     e(  5 -  5) =      7.50685  eV     1   --> A_1  G_1 D_1   
     e(  6 -  6) =      9.81501  eV     1   --> B_2  G_4 D_2'  
     e(  7 -  8) =     11.40502  eV     2   --> E    G_5 D_5   

 **************************************************************************

 **************************************************************************

                    xk=(   0.46667,   0.00000,   0.00000  )

     Band symmetry, C_4v (4mm)  point group:

     e(  1 -  1) =     -4.87250  eV     1   --> A_1  G_1 D_1   
     e(  2 -  2) =      3.01538  eV     1   --> B_2  G_4 D_2'  
     e(  3 -  4) =      4.41605  eV     2   --> E    G_5 D_5   
     e(  5 -  5) =      7.39254  eV     1   --> A_1  G_1 D_1   
     e(  6 -  6) =      9.55294  eV     1   --> B_2  G_4 D_2'  
     e(  7 -  8) =     11.69307  eV     2   --> E    G_5 D_5   

 **************************************************************************

 **************************************************************************

                    xk=(   0.50000,   0.00000,   0.00000  )

     Band symmetry, C_4v (4mm)  point group:

     e(  1 -  1) =     -4.73259  eV     1   --> A_1  G_1 D_1   
     e(  2 -  2) =      2.71554  eV     1   --> B_2  G_4 D_2'  
     e(  3 -  4) =      4.28656  eV     2   --> E    G_5 D_5   
     e(  5 -  5) =      7.28471  eV     1   --> A_1  G_1 D_1   
     e(  6 -  6) =      9.29243  eV     1   --> B_2  G_4 D_2'  
     e(  7 -  8) =     11.98498  eV     2   --> E    G_5 D_5   

 **************************************************************************

 **************************************************************************

                    xk=(   0.53333,   0.00000,   0.00000  )

     Band symmetry, C_4v (4mm)  point group:

     e(  1 -  1) =     -4.58355  eV     1   --> A_1  G_1 D_1   
     e(  2 -  2) =      2.41482  eV     1   --> B_2  G_4 D_2'  
     e(  3 -  4) =      4.16411  eV     2   --> E    G_5 D_5   
     e(  5 -  5) =      7.18422  eV     1   --> A_1  G_1 D_1   
     e(  6 -  6) =      9.03815  eV     1   --> B_2  G_4 D_2'  
     e(  7 -  8) =     12.28027  eV     2   --> E    G_5 D_5   

 **************************************************************************

 **************************************************************************

                    xk=(   0.56667,   0.00000,   0.00000  )

     Band symmetry, C_4v (4mm)  point group:

     e(  1 -  1) =     -4.42548  eV     1   --> A_1  G_1 D_1   
     e(  2 -  2) =      2.11373  eV     1   --> B_2  G_4 D_2'  
     e(  3 -  4) =      4.04904  eV     2   --> E    G_5 D_5   
     e(  5 -  5) =      7.09179  eV     1   --> A_1  G_1 D_1   
     e(  6 -  6) =      8.79313  eV     1   --> B_2  G_4 D_2'  
     e(  7 -  8) =     12.57860  eV     2   --> E    G_5 D_5   

 **************************************************************************

 **************************************************************************

                    xk=(   0.60000,   0.00000,   0.00000  )

     Band symmetry, C_4v (4mm)  point group:

     e(  1 -  1) =     -4.25851  eV     1   --> A_1  G_1 D_1   
     e(  2 -  2) =      1.81272  eV     1   --> B_2  G_4 D_2'  
     e(  3 -  4) =      3.94165  eV     2   --> E    G_5 D_5   
     e(  5 -  5) =      7.00805  eV     1   --> A_1  G_1 D_1   
     e(  6 -  6) =      8.55934  eV     1   --> B_2  G_4 D_2'  
     e(  7 -  8) =     12.87969  eV     2   --> E    G_5 D_5   

 **************************************************************************

 **************************************************************************

                    xk=(   0.63333,   0.00000,   0.00000  )

     Band symmetry, C_4v (4mm)  point group:

     e(  1 -  1) =     -4.08279  eV     1   --> A_1  G_1 D_1   
     e(  2 -  2) =      1.51225  eV     1   --> B_2  G_4 D_2'  
     e(  3 -  4) =      3.84217  eV     2   --> E    G_5 D_5   
     e(  5 -  5) =      6.93354  eV     1   --> A_1  G_1 D_1   
     e(  6 -  6) =      8.33810  eV     1   --> B_2  G_4 D_2'  
     e(  7 -  8) =     13.18335  eV     2   --> E    G_5 D_5   

 **************************************************************************

 **************************************************************************

                    xk=(   0.66667,   0.00000,   0.00000  )

     Band symmetry, C_4v (4mm)  point group:

     e(  1 -  1) =     -3.89847  eV     1   --> A_1  G_1 D_1   
     e(  2 -  2) =      1.21276  eV     1   --> B_2  G_4 D_2'  
     e(  3 -  4) =      3.75080  eV     2   --> E    G_5 D_5   
     e(  5 -  5) =      6.86876  eV     1   --> A_1  G_1 D_1   
     e(  6 -  6) =      8.13028  eV     1   --> B_2  G_4 D_2'  
     e(  7 -  8) =     13.48938  eV     2   --> E    G_5 D_5   

 **************************************************************************

 **************************************************************************

                    xk=(   0.70000,   0.00000,   0.00000  )

     Band symmetry, C_4v (4mm)  point group:

     e(  1 -  1) =     -3.70570  eV     1   --> A_1  G_1 D_1   
     e(  2 -  2) =      0.91472  eV     1   --> B_2  G_4 D_2'  
     e(  3 -  4) =      3.66771  eV     2   --> E    G_5 D_5   
     e(  5 -  5) =      6.81415  eV     1   --> A_1  G_1 D_1   
     e(  6 -  6) =      7.93645  eV     1   --> B_2  G_4 D_2'  
     e(  7 -  8) =     13.79764  eV     2   --> E    G_5 D_5   

 **************************************************************************

 **************************************************************************

                    xk=(   0.73333,   0.00000,   0.00000  )

     Band symmetry, C_4v (4mm)  point group:

     e(  1 -  1) =     -3.50468  eV     1   --> A_1  G_1 D_1   
     e(  2 -  2) =      0.61857  eV     1   --> B_2  G_4 D_2'  
     e(  3 -  4) =      3.59305  eV     2   --> E    G_5 D_5   
     e(  5 -  5) =      6.77011  eV     1   --> A_1  G_1 D_1   
     e(  6 -  6) =      7.75693  eV     1   --> B_2  G_4 D_2'  
     e(  7 -  8) =     14.10795  eV     2   --> E    G_5 D_5   

 **************************************************************************

 **************************************************************************

                    xk=(   0.76667,   0.00000,   0.00000  )

     Band symmetry, C_4v (4mm)  point group:

     e(  1 -  1) =     -3.29559  eV     1   --> A_1  G_1 D_1   
     e(  2 -  2) =      0.32483  eV     1   --> B_2  G_4 D_2'  
     e(  3 -  4) =      3.52692  eV     2   --> E    G_5 D_5   
     e(  5 -  5) =      6.73700  eV     1   --> A_1  G_1 D_1   
     e(  6 -  6) =      7.59194  eV     1   --> B_2  G_4 D_2'  
     e(  7 -  8) =     14.42010  eV     2   --> E    G_5 D_5   

 **************************************************************************

 **************************************************************************

                    xk=(   0.80000,   0.00000,   0.00000  )

     Band symmetry, C_4v (4mm)  point group:

     e(  1 -  1) =     -3.07865  eV     1   --> A_1  G_1 D_1   
     e(  2 -  2) =      0.03396  eV     1   --> B_2  G_4 D_2'  
     e(  3 -  4) =      3.46942  eV     2   --> E    G_5 D_5   
     e(  5 -  5) =      6.71518  eV     1   --> A_1  G_1 D_1   
     e(  6 -  6) =      7.44151  eV     1   --> B_2  G_4 D_2'  
     e(  7 -  8) =     14.73365  eV     2   --> E    G_5 D_5   

 **************************************************************************

 **************************************************************************

                    xk=(   0.83333,   0.00000,   0.00000  )

     Band symmetry, C_4v (4mm)  point group:

     e(  1 -  1) =     -2.85407  eV     1   --> A_1  G_1 D_1   
     e(  2 -  2) =     -0.25361  eV     1   --> B_2  G_4 D_2'  
     e(  3 -  4) =      3.42065  eV     2   --> E    G_5 D_5   
     e(  5 -  5) =      6.70497  eV     1   --> A_1  G_1 D_1   
     e(  6 -  6) =      7.30560  eV     1   --> B_2  G_4 D_2'  
     e(  7 -  8) =     15.04784  eV     2   --> E    G_5 D_5   

 **************************************************************************

 **************************************************************************

                    xk=(   0.86667,   0.00000,   0.00000  )

     Band symmetry, C_4v (4mm)  point group:

     e(  1 -  1) =     -2.62212  eV     1   --> A_1  G_1 D_1   
     e(  2 -  2) =     -0.53741  eV     1   --> B_2  G_4 D_2'  
     e(  3 -  4) =      3.38066  eV     2   --> E    G_5 D_5   
     e(  5 -  5) =      6.70669  eV     1   --> A_1  G_1 D_1   
     e(  6 -  6) =      7.18412  eV     1   --> B_2  G_4 D_2'  
     e(  7 -  8) =     15.36113  eV     2   --> E    G_5 D_5   

 **************************************************************************

 **************************************************************************

                    xk=(   0.90000,   0.00000,   0.00000  )

     Band symmetry, C_4v (4mm)  point group:

     e(  1 -  1) =     -2.38305  eV     1   --> A_1  G_1 D_1   
     e(  2 -  2) =     -0.81698  eV     1   --> B_2  G_4 D_2'  
     e(  3 -  4) =      3.34950  eV     2   --> E    G_5 D_5   
     e(  5 -  5) =      6.72064  eV     1   --> A_1  G_1 D_1   
     e(  6 -  6) =      7.07690  eV     1   --> B_2  G_4 D_2'  
     e(  7 -  8) =     15.67015  eV     2   --> E    G_5 D_5   

 **************************************************************************

 **************************************************************************

                    xk=(   0.93333,   0.00000,   0.00000  )

     Band symmetry, C_4v (4mm)  point group:

     e(  1 -  1) =     -2.13716  eV     1   --> A_1  G_1 D_1   
     e(  2 -  2) =     -1.09191  eV     1   --> B_2  G_4 D_2'  
     e(  3 -  4) =      3.32722  eV     2   --> E    G_5 D_5   
     e(  5 -  5) =      6.74711  eV     1   --> A_1  G_1 D_1   
     e(  6 -  6) =      6.98375  eV     1   --> B_2  G_4 D_2'  
     e(  7 -  8) =     15.96616  eV     2   --> E    G_5 D_5   

 **************************************************************************

 **************************************************************************

                    xk=(   0.96667,   0.00000,   0.00000  )

     Band symmetry, C_4v (4mm)  point group:

     e(  1 -  1) =     -1.88476  eV     1   --> A_1  G_1 D_1   
     e(  2 -  2) =     -1.36176  eV     1   --> B_2  G_4 D_2'  
     e(  3 -  4) =      3.31384  eV     2   --> E    G_5 D_5   
     e(  5 -  5) =      6.78639  eV     1   --> A_1  G_1 D_1   
     e(  6 -  6) =      6.90444  eV     1   --> B_2  G_4 D_2'  
     e(  7 -  8) =     16.22130  eV     2   --> E    G_5 D_5   

 **************************************************************************

 **************************************************************************

                    xk=(   1.00000,   0.00000,   0.00000  )

     zone border point and non-symmorphic group 
     symmetry decomposition not available

 **************************************************************************

 **************************************************************************

                    xk=(   1.00000,   0.02500,   0.02500  )

     zone border point and non-symmorphic group 
     symmetry decomposition not available

 **************************************************************************

 **************************************************************************

                    xk=(   1.00000,   0.05000,   0.05000  )

     zone border point and non-symmorphic group 
     symmetry decomposition not available

 **************************************************************************

 **************************************************************************

                    xk=(   1.00000,   0.07500,   0.07500  )

     zone border point and non-symmorphic group 
     symmetry decomposition not available

 **************************************************************************

 **************************************************************************

                    xk=(   1.00000,   0.10000,   0.10000  )

     zone border point and non-symmorphic group 
     symmetry decomposition not available

 **************************************************************************

 **************************************************************************

                    xk=(   1.00000,   0.12500,   0.12500  )

     zone border point and non-symmorphic group 
     symmetry decomposition not available

 **************************************************************************

 **************************************************************************

                    xk=(   1.00000,   0.15000,   0.15000  )

     zone border point and non-symmorphic group 
     symmetry decomposition not available

 **************************************************************************

 **************************************************************************

                    xk=(   1.00000,   0.17500,   0.17500  )

     zone border point and non-symmorphic group 
     symmetry decomposition not available

 **************************************************************************

 **************************************************************************

                    xk=(   1.00000,   0.20000,   0.20000  )

     zone border point and non-symmorphic group 
     symmetry decomposition not available

 **************************************************************************

 **************************************************************************

                    xk=(   1.00000,   0.22500,   0.22500  )

     zone border point and non-symmorphic group 
     symmetry decomposition not available

 **************************************************************************

 **************************************************************************

                    xk=(   1.00000,   0.25000,   0.25000  )

     zone border point and non-symmorphic group 
     symmetry decomposition not available

 **************************************************************************

 **************************************************************************

                    xk=(   0.96667,   0.24167,   0.24167  )

     point group C_s (m)    
     there are  2 classes
     the character table:

       E     s    
A'     1.00  1.00
A''    1.00 -1.00

     the symmetry operations in each class and the name of the first element:

     E        1
                                                                 
     s        2
                                                                 

     Band symmetry, C_s (m)     point group:

     e(  1 -  1) =     -2.03470  eV     1   --> A'             
     e(  2 -  2) =     -1.03457  eV     1   --> A'             
     e(  3 -  3) =      1.85165  eV     1   --> A'             
     e(  4 -  4) =      3.72070  eV     1   --> A''            
     e(  5 -  5) =      7.31806  eV     1   --> A'             
     e(  6 -  6) =     10.13764  eV     1   --> A'             
     e(  7 -  7) =     13.73030  eV     1   --> A''            
     e(  8 -  8) =     14.07705  eV     1   --> A'             

 **************************************************************************

 **************************************************************************

                    xk=(   0.93333,   0.23333,   0.23333  )

     Band symmetry, C_s (m)     point group:

     e(  1 -  1) =     -2.12354  eV     1   --> A'             
     e(  2 -  2) =     -0.95657  eV     1   --> A'             
     e(  3 -  3) =      1.92779  eV     1   --> A'             
     e(  4 -  4) =      3.70613  eV     1   --> A''            
     e(  5 -  5) =      7.30448  eV     1   --> A'             
     e(  6 -  6) =      9.98916  eV     1   --> A'             
     e(  7 -  7) =     13.64090  eV     1   --> A''            
     e(  8 -  8) =     13.86433  eV     1   --> A'             

 **************************************************************************

 **************************************************************************

                    xk=(   0.90000,   0.22500,   0.22500  )

     Band symmetry, C_s (m)     point group:

     e(  1 -  1) =     -2.27345  eV     1   --> A'             
     e(  2 -  2) =     -0.81796  eV     1   --> A'             
     e(  3 -  3) =      2.02891  eV     1   --> A'             
     e(  4 -  4) =      3.70080  eV     1   --> A''            
     e(  5 -  5) =      7.30348  eV     1   --> A'             
     e(  6 -  6) =      9.85477  eV     1   --> A'             
     e(  7 -  7) =     13.50582  eV     1   --> A''            
     e(  8 -  8) =     13.64485  eV     1   --> A'             

 **************************************************************************

 **************************************************************************

                    xk=(   0.86667,   0.21667,   0.21667  )

     Band symmetry, C_s (m)     point group:

     e(  1 -  1) =     -2.45780  eV     1   --> A'             
     e(  2 -  2) =     -0.64168  eV     1   --> A'             
     e(  3 -  3) =      2.15100  eV     1   --> A'             
     e(  4 -  4) =      3.70481  eV     1   --> A''            
     e(  5 -  5) =      7.31467  eV     1   --> A'             
     e(  6 -  6) =      9.73546  eV     1   --> A'             
     e(  7 -  7) =     13.35470  eV     1   --> A''            
     e(  8 -  8) =     13.42460  eV     1   --> A'             

 **************************************************************************

 **************************************************************************

                    xk=(   0.83333,   0.20833,   0.20833  )

     Band symmetry, C_s (m)     point group:

     e(  1 -  1) =     -2.65971  eV     1   --> A'             
     e(  2 -  2) =     -0.44170  eV     1   --> A'             
     e(  3 -  3) =      2.29066  eV     1   --> A'             
     e(  4 -  4) =      3.71826  eV     1   --> A''            
     e(  5 -  5) =      7.33745  eV     1   --> A'             
     e(  6 -  6) =      9.63233  eV     1   --> A'             
     e(  7 -  7) =     13.19863  eV     1   --> A''            
     e(  8 -  8) =     13.20499  eV     1   --> A'             

 **************************************************************************

 **************************************************************************

                    xk=(   0.80000,   0.20000,   0.20000  )

     Band symmetry, C_s (m)     point group:

     e(  1 -  1) =     -2.86961  eV     1   --> A'             
     e(  2 -  2) =     -0.22522  eV     1   --> A'             
     e(  3 -  3) =      2.44504  eV     1   --> A'             
     e(  4 -  4) =      3.74121  eV     1   --> A''            
     e(  5 -  5) =      7.37092  eV     1   --> A'             
     e(  6 -  6) =      9.54669  eV     1   --> A'             
     e(  7 -  7) =     12.98659  eV     1   --> A'             
     e(  8 -  8) =     13.04182  eV     1   --> A''            

 **************************************************************************

 **************************************************************************

                    xk=(   0.76667,   0.19167,   0.19167  )

     Band symmetry, C_s (m)     point group:

     e(  1 -  1) =     -3.08193  eV     1   --> A'             
     e(  2 -  2) =      0.00395  eV     1   --> A'             
     e(  3 -  3) =      2.61171  eV     1   --> A'             
     e(  4 -  4) =      3.77369  eV     1   --> A''            
     e(  5 -  5) =      7.41391  eV     1   --> A'             
     e(  6 -  6) =      9.48010  eV     1   --> A'             
     e(  7 -  7) =     12.76963  eV     1   --> A'             
     e(  8 -  8) =     12.88575  eV     1   --> A''            

 **************************************************************************

 **************************************************************************

                    xk=(   0.73333,   0.18333,   0.18333  )

     Band symmetry, C_s (m)     point group:

     e(  1 -  1) =     -3.29316  eV     1   --> A'             
     e(  2 -  2) =      0.24369  eV     1   --> A'             
     e(  3 -  3) =      2.78854  eV     1   --> A'             
     e(  4 -  4) =      3.81570  eV     1   --> A''            
     e(  5 -  5) =      7.46488  eV     1   --> A'             
     e(  6 -  6) =      9.43433  eV     1   --> A'             
     e(  7 -  7) =     12.55429  eV     1   --> A'             
     e(  8 -  8) =     12.73059  eV     1   --> A''            

 **************************************************************************

 **************************************************************************

                    xk=(   0.70000,   0.17500,   0.17500  )

     Band symmetry, C_s (m)     point group:

     e(  1 -  1) =     -3.50094  eV     1   --> A'             
     e(  2 -  2) =      0.49277  eV     1   --> A'             
     e(  3 -  3) =      2.97363  eV     1   --> A'             
     e(  4 -  4) =      3.86722  eV     1   --> A''            
     e(  5 -  5) =      7.52198  eV     1   --> A'             
     e(  6 -  6) =      9.41141  eV     1   --> A'             
     e(  7 -  7) =     12.34074  eV     1   --> A'             
     e(  8 -  8) =     12.57572  eV     1   --> A''            

 **************************************************************************

 **************************************************************************

                    xk=(   0.66667,   0.16667,   0.16667  )

     Band symmetry, C_s (m)     point group:

     e(  1 -  1) =     -3.70363  eV     1   --> A'             
     e(  2 -  2) =      0.75039  eV     1   --> A'             
     e(  3 -  3) =      3.16525  eV     1   --> A'             
     e(  4 -  4) =      3.92821  eV     1   --> A''            
     e(  5 -  5) =      7.58311  eV     1   --> A'             
     e(  6 -  6) =      9.41339  eV     1   --> A'             
     e(  7 -  7) =     12.12920  eV     1   --> A'             
     e(  8 -  8) =     12.42006  eV     1   --> A''            

 **************************************************************************

 **************************************************************************

                    xk=(   0.63333,   0.15833,   0.15833  )

     Band symmetry, C_s (m)     point group:

     e(  1 -  1) =     -3.90000  eV     1   --> A'             
     e(  2 -  2) =      1.01600  eV     1   --> A'             
     e(  3 -  3) =      3.36182  eV     1   --> A'             
     e(  4 -  4) =      3.99857  eV     1   --> A''            
     e(  5 -  5) =      7.64615  eV     1   --> A'             
     e(  6 -  6) =      9.44212  eV     1   --> A'             
     e(  7 -  7) =     11.92000  eV     1   --> A'             
     e(  8 -  8) =     12.26212  eV     1   --> A''            

 **************************************************************************

 **************************************************************************

                    xk=(   0.60000,   0.15000,   0.15000  )

     Band symmetry, C_s (m)     point group:

     e(  1 -  1) =     -4.08915  eV     1   --> A'             
     e(  2 -  2) =      1.28917  eV     1   --> A'             
     e(  3 -  3) =      3.56183  eV     1   --> A'             
     e(  4 -  4) =      4.07820  eV     1   --> A''            
     e(  5 -  5) =      7.70923  eV     1   --> A'             
     e(  6 -  6) =      9.49882  eV     1   --> A'             
     e(  7 -  7) =     11.71368  eV     1   --> A'             
     e(  8 -  8) =     12.10016  eV     1   --> A''            

 **************************************************************************

 **************************************************************************

                    xk=(   0.56667,   0.14167,   0.14167  )

     Band symmetry, C_s (m)     point group:

     e(  1 -  1) =     -4.27034  eV     1   --> A'             
     e(  2 -  2) =      1.56954  eV     1   --> A'             
     e(  3 -  3) =      3.76389  eV     1   --> A'             
     e(  4 -  4) =      4.16695  eV     1   --> A''            
     e(  5 -  5) =      7.77108  eV     1   --> A'             
     e(  6 -  6) =      9.58351  eV     1   --> A'             
     e(  7 -  7) =     11.51112  eV     1   --> A'             
     e(  8 -  8) =     11.93231  eV     1   --> A''            

 **************************************************************************

 **************************************************************************

                    xk=(   0.53333,   0.13333,   0.13333  )

     Band symmetry, C_s (m)     point group:

     e(  1 -  1) =     -4.44302  eV     1   --> A'             
     e(  2 -  2) =      1.85679  eV     1   --> A'             
     e(  3 -  3) =      3.96668  eV     1   --> A'             
     e(  4 -  4) =      4.26463  eV     1   --> A''            
     e(  5 -  5) =      7.83125  eV     1   --> A'             
     e(  6 -  6) =      9.69439  eV     1   --> A'             
     e(  7 -  7) =     11.31388  eV     1   --> A'             
     e(  8 -  8) =     11.75674  eV     1   --> A''            

 **************************************************************************

 **************************************************************************

                    xk=(   0.50000,   0.12500,   0.12500  )

     Band symmetry, C_s (m)     point group:

     e(  1 -  1) =     -4.60672  eV     1   --> A'             
     e(  2 -  2) =      2.15056  eV     1   --> A'             
     e(  3 -  3) =      4.16894  eV     1   --> A'             
     e(  4 -  4) =      4.37097  eV     1   --> A''            
     e(  5 -  5) =      7.89006  eV     1   --> A'             
     e(  6 -  6) =      9.82682  eV     1   --> A'             
     e(  7 -  7) =     11.12498  eV     1   --> A'             
     e(  8 -  8) =     11.57189  eV     1   --> A''            

 **************************************************************************

 **************************************************************************

                    xk=(   0.46667,   0.11667,   0.11667  )

     Band symmetry, C_s (m)     point group:

     e(  1 -  1) =     -4.76107  eV     1   --> A'             
     e(  2 -  2) =      2.45046  eV     1   --> A'             
     e(  3 -  3) =      4.36946  eV     1   --> A'             
     e(  4 -  4) =      4.48569  eV     1   --> A''            
     e(  5 -  5) =      7.94845  eV     1   --> A'             
     e(  6 -  6) =      9.97077  eV     1   --> A'             
     e(  7 -  7) =     10.95130  eV     1   --> A'             
     e(  8 -  8) =     11.37669  eV     1   --> A''            

 **************************************************************************

 **************************************************************************

                    xk=(   0.43333,   0.10833,   0.10833  )

     Band symmetry, C_s (m)     point group:

     e(  1 -  1) =     -4.90575  eV     1   --> A'             
     e(  2 -  2) =      2.75601  eV     1   --> A'             
     e(  3 -  3) =      4.56708  eV     1   --> A'             
     e(  4 -  4) =      4.60837  eV     1   --> A''            
     e(  5 -  5) =      8.00763  eV     1   --> A'             
     e(  6 -  6) =     10.10282  eV     1   --> A'             
     e(  7 -  7) =     10.81144  eV     1   --> A'             
     e(  8 -  8) =     11.17084  eV     1   --> A''            

 **************************************************************************

 **************************************************************************

                    xk=(   0.40000,   0.10000,   0.10000  )

     Band symmetry, C_s (m)     point group:

     e(  1 -  1) =     -5.04051  eV     1   --> A'             
     e(  2 -  2) =      3.06662  eV     1   --> A'             
     e(  3 -  3) =      4.73852  eV     1   --> A''            
     e(  4 -  4) =      4.76061  eV     1   --> A'             
     e(  5 -  5) =      8.06881  eV     1   --> A'             
     e(  6 -  6) =     10.16829  eV     1   --> A'             
     e(  7 -  7) =     10.75256  eV     1   --> A'             
     e(  8 -  8) =     10.95487  eV     1   --> A''            

 **************************************************************************

 **************************************************************************

                    xk=(   0.36667,   0.09167,   0.09167  )

     Band symmetry, C_s (m)     point group:

     e(  1 -  1) =     -5.16512  eV     1   --> A'             
     e(  2 -  2) =      3.38154  eV     1   --> A'             
     e(  3 -  3) =      4.87548  eV     1   --> A''            
     e(  4 -  4) =      4.94887  eV     1   --> A'             
     e(  5 -  5) =      8.13294  eV     1   --> A'             
     e(  6 -  6) =     10.11760  eV     1   --> A'             
     e(  7 -  7) =     10.73021  eV     1   --> A''            
     e(  8 -  8) =     10.81212  eV     1   --> A'             

 **************************************************************************

 **************************************************************************

                    xk=(   0.33333,   0.08333,   0.08333  )

     Band symmetry, C_s (m)     point group:

     e(  1 -  1) =     -5.27940  eV     1   --> A'             
     e(  2 -  2) =      3.69982  eV     1   --> A'             
     e(  3 -  3) =      5.01844  eV     1   --> A''            
     e(  4 -  4) =      5.13063  eV     1   --> A'             
     e(  5 -  5) =      8.20056  eV     1   --> A'             
     e(  6 -  6) =      9.99285  eV     1   --> A'             
     e(  7 -  7) =     10.49907  eV     1   --> A''            
     e(  8 -  8) =     10.92692  eV     1   --> A'             

 **************************************************************************

 **************************************************************************

                    xk=(   0.30000,   0.07500,   0.07500  )

     Band symmetry, C_s (m)     point group:

     e(  1 -  1) =     -5.38320  eV     1   --> A'             
     e(  2 -  2) =      4.02015  eV     1   --> A'             
     e(  3 -  3) =      5.16628  eV     1   --> A''            
     e(  4 -  4) =      5.30456  eV     1   --> A'             
     e(  5 -  5) =      8.27170  eV     1   --> A'             
     e(  6 -  6) =      9.84311  eV     1   --> A'             
     e(  7 -  7) =     10.26432  eV     1   --> A''            
     e(  8 -  8) =     11.01209  eV     1   --> A'             

 **************************************************************************

 **************************************************************************

                    xk=(   0.26667,   0.06667,   0.06667  )

     Band symmetry, C_s (m)     point group:

     e(  1 -  1) =     -5.47639  eV     1   --> A'             
     e(  2 -  2) =      4.34077  eV     1   --> A'             
     e(  3 -  3) =      5.31757  eV     1   --> A''            
     e(  4 -  4) =      5.46918  eV     1   --> A'             
     e(  5 -  5) =      8.34579  eV     1   --> A'             
     e(  6 -  6) =      9.68770  eV     1   --> A'             
     e(  7 -  7) =     10.02936  eV     1   --> A''            
     e(  8 -  8) =     11.00355  eV     1   --> A'             

 **************************************************************************

 **************************************************************************

                    xk=(   0.23333,   0.05833,   0.05833  )

     Band symmetry, C_s (m)     point group:

     e(  1 -  1) =     -5.55884  eV     1   --> A'             
     e(  2 -  2) =      4.65925  eV     1   --> A'             
     e(  3 -  3) =      5.47035  eV     1   --> A''            
     e(  4 -  4) =      5.62286  eV     1   --> A'             
     e(  5 -  5) =      8.42160  eV     1   --> A'             
     e(  6 -  6) =      9.53394  eV     1   --> A'             
     e(  7 -  7) =      9.79806  eV     1   --> A''            
     e(  8 -  8) =     10.87830  eV     1   --> A'             

 **************************************************************************

 **************************************************************************

                    xk=(   0.20000,   0.05000,   0.05000  )

     Band symmetry, C_s (m)     point group:

     e(  1 -  1) =     -5.63048  eV     1   --> A'             
     e(  2 -  2) =      4.97209  eV     1   --> A'             
     e(  3 -  3) =      5.62195  eV     1   --> A''            
     e(  4 -  4) =      5.76373  eV     1   --> A'             
     e(  5 -  5) =      8.49723  eV     1   --> A'             
     e(  6 -  6) =      9.38518  eV     1   --> A'             
     e(  7 -  7) =      9.57487  eV     1   --> A''            
     e(  8 -  8) =     10.66855  eV     1   --> A'             

 **************************************************************************

 **************************************************************************

                    xk=(   0.16667,   0.04167,   0.04167  )

     Band symmetry, C_s (m)     point group:

     e(  1 -  1) =     -5.69122  eV     1   --> A'             
     e(  2 -  2) =      5.27416  eV     1   --> A'             
     e(  3 -  3) =      5.76872  eV     1   --> A''            
     e(  4 -  4) =      5.88962  eV     1   --> A'             
     e(  5 -  5) =      8.57005  eV     1   --> A'             
     e(  6 -  6) =      9.24321  eV     1   --> A'             
     e(  7 -  7) =      9.36497  eV     1   --> A''            
     e(  8 -  8) =     10.42241  eV     1   --> A'             

 **************************************************************************

 **************************************************************************

                    xk=(   0.13333,   0.03333,   0.03333  )

     Band symmetry, C_s (m)     point group:

     e(  1 -  1) =     -5.74100  eV     1   --> A'             
     e(  2 -  2) =      5.55779  eV     1   --> A'             
     e(  3 -  3) =      5.90569  eV     1   --> A''            
     e(  4 -  4) =      5.99812  eV     1   --> A'             
     e(  5 -  5) =      8.63686  eV     1   --> A'             
     e(  6 -  6) =      9.10936  eV     1   --> A'             
     e(  7 -  7) =      9.17467  eV     1   --> A''            
     e(  8 -  8) =     10.17698  eV     1   --> A'             

 **************************************************************************

 **************************************************************************

                    xk=(   0.10000,   0.02500,   0.02500  )

     Band symmetry, C_s (m)     point group:

     e(  1 -  1) =     -5.77977  eV     1   --> A'             
     e(  2 -  2) =      5.81148  eV     1   --> A'             
     e(  3 -  3) =      6.02624  eV     1   --> A''            
     e(  4 -  4) =      6.08656  eV     1   --> A'             
     e(  5 -  5) =      8.69406  eV     1   --> A'             
     e(  6 -  6) =      8.98599  eV     1   --> A'             
     e(  7 -  7) =      9.01158  eV     1   --> A''            
     e(  8 -  8) =      9.95924  eV     1   --> A'             

 **************************************************************************

 **************************************************************************

                    xk=(   0.06667,   0.01667,   0.01667  )

     Band symmetry, C_s (m)     point group:

     e(  1 -  1) =     -5.80750  eV     1   --> A'             
     e(  2 -  2) =      6.01850  eV     1   --> A'             
     e(  3 -  3) =      6.12221  eV     1   --> A''            
     e(  4 -  4) =      6.15226  eV     1   --> A'             
     e(  5 -  5) =      8.73806  eV     1   --> A'             
     e(  6 -  6) =      8.87950  eV     1   --> A'             
     e(  7 -  7) =      8.88468  eV     1   --> A''            
     e(  8 -  8) =      9.79001  eV     1   --> A'             

 **************************************************************************

 **************************************************************************

                    xk=(   0.03333,   0.00833,   0.00833  )

     Band symmetry, C_s (m)     point group:

     e(  1 -  1) =     -5.82416  eV     1   --> A'             
     e(  2 -  2) =      6.15722  eV     1   --> A'             
     e(  3 -  3) =      6.18474  eV     1   --> A''            
     e(  4 -  4) =      6.19282  eV     1   --> A'             
     e(  5 -  5) =      8.76580  eV     1   --> A'             
     e(  6 -  7) =      8.80337  eV     2   --> A'             
     e(  6 -  7) =      8.80337  eV     2   --> A''            
     e(  8 -  8) =      9.68374  eV     1   --> A'             

 **************************************************************************

 **************************************************************************

                    xk=(   0.00000,   0.00000,   0.00000  )

     point group O_h (m-3m) 
     there are 10 classes
     the character table:

       E     8C3   3C2   6C4   6C2'  i     8S6   3s_h  6S4   6s_d 
A_1g   1.00  1.00  1.00  1.00  1.00  1.00  1.00  1.00  1.00  1.00
A_2g   1.00  1.00  1.00 -1.00 -1.00  1.00  1.00  1.00 -1.00 -1.00
E_g    2.00 -1.00  2.00  0.00  0.00  2.00 -1.00  2.00  0.00  0.00
T_1g   3.00  0.00 -1.00  1.00 -1.00  3.00  0.00 -1.00  1.00 -1.00
T_2g   3.00  0.00 -1.00 -1.00  1.00  3.00  0.00 -1.00 -1.00  1.00
A_1u   1.00  1.00  1.00  1.00  1.00 -1.00 -1.00 -1.00 -1.00 -1.00
A_2u   1.00  1.00  1.00 -1.00 -1.00 -1.00 -1.00 -1.00  1.00  1.00
E_u    2.00 -1.00  2.00  0.00  0.00 -2.00  1.00 -2.00  0.00  0.00
T_1u   3.00  0.00 -1.00  1.00 -1.00 -3.00  0.00  1.00 -1.00  1.00
T_2u   3.00  0.00 -1.00 -1.00  1.00 -3.00  0.00  1.00  1.00 -1.00

     the symmetry operations in each class and the name of the first element:

     E        1
                                                                 
     8C3     17   19   20   18   24   21   22   23
                                                                 
     3C2      2    4    3
                                                                 
     6C4      7    8   15   16   12   11
                                                                 
     6C2'     5    6   14   13   10    9
                                                                 
     i       25
                                                                 
     8S6     41   43   44   42   48   45   46   47
                                                                 
     3s_h    26   28   27
                                                                 
     6S4     31   32   39   40   36   35
                                                                 
     6s_d    29   30   38   37   34   33
                                                                 

     Band symmetry, O_h (m-3m)  point group:

     e(  1 -  1) =     -5.82971  eV     1   --> A_1g G_1   G_1+
     e(  2 -  4) =      6.20655  eV     3   --> T_2g G_25' G_5+
     e(  5 -  7) =      8.77528  eV     3   --> T_1u G_15  G_4-
     e(  8 -  8) =      9.64798  eV     1   --> A_2u G_2'  G_2-

 **************************************************************************
 
     BANDS        :      3.30s CPU      3.85s WALL

 
   This run was terminated on:  18:52:33  28Feb2026            

=------------------------------------------------------------------------------=
   JOB DONE.
=------------------------------------------------------------------------------=
