
     Program PWSCF v.7.5 starts on 28Feb2026 at 18:47:23 

     This program is part of the open-source Quantum ESPRESSO suite
     for quantum simulation of materials; please cite
         "P. Giannozzi et al., J. Phys.:Condens. Matter 21 395502 (2009);
         "P. Giannozzi et al., J. Phys.:Condens. Matter 29 465901 (2017);
         "P. Giannozzi et al., J. Chem. Phys. 152 154105 (2020);
          URL http://www.quantum-espresso.org", 
     in publications or presentations arising from this work. More details at
     http://www.quantum-espresso.org/quote

     Parallel version (MPI), running on     1 processors

     MPI processes distributed on     1 nodes
     5646 MiB available memory on the printing compute node when the environment starts
 
     Waiting for input...
     Reading input from standard input

     Current dimensions of program PWSCF are:
     Max number of different atomic species (ntypx) = 10
     Max number of k-points (npk) =  40000
     Max angular momentum in pseudopotentials (lmaxx) =  4

     Atomic positions and unit cell read from directory:
     ./tmp/silicon.save/
 
     Message from routine setup:
     no reason to have ecutrho>4*ecutwfc
 
     Subspace diagonalization in iterative solution of the eigenvalue problem:
     a serial algorithm will be used

 
     G-vector sticks info
     --------------------
     sticks:   dense  smooth     PW     G-vecs:    dense   smooth      PW
     Sum        1417     721    211                35749    12627    2085
 
     Using Slab Decomposition
 


     bravais-lattice index     =            2
     lattice parameter (alat)  =      10.2076  a.u.
     unit-cell volume          =     265.8955 (a.u.)^3
     number of atoms/cell      =            2
     number of atomic types    =            1
     number of electrons       =         8.00
     number of Kohn-Sham states=            8
     kinetic-energy cutoff     =      50.0000  Ry
     charge density cutoff     =     400.0000  Ry
     Exchange-correlation= SLA  PZ   NOGX NOGC
                           (   1   1   0   0   0   0   0)

     celldm(1)=  10.207600  celldm(2)=   0.000000  celldm(3)=   0.000000
     celldm(4)=   0.000000  celldm(5)=   0.000000  celldm(6)=   0.000000

     crystal axes: (cart. coord. in units of alat)
               a(1) = (  -0.500000   0.000000   0.500000 )  
               a(2) = (   0.000000   0.500000   0.500000 )  
               a(3) = (  -0.500000   0.500000   0.000000 )  

     reciprocal axes: (cart. coord. in units 2 pi/alat)
               b(1) = ( -1.000000 -1.000000  1.000000 )  
               b(2) = (  1.000000  1.000000  1.000000 )  
               b(3) = ( -1.000000  1.000000 -1.000000 )  


     PseudoPot. # 1 for Si read from file:
     ../../src/pseudos/Si.pz-vbc.UPF
     MD5 check sum: a974d1b8727157e37210f3f86afb6210
     Pseudo is Norm-conserving, Zval =  4.0
     Generated by new atomic code, or converted to UPF format
     Using radial grid of  431 points,  2 beta functions with: 
                l(1) =   0
                l(2) =   1

     atomic species   valence    mass     pseudopotential
     Si                4.00    28.08600     Si( 1.00)

     48 Sym. Ops., with inversion, found (24 have fractional translation)


                                    s                        frac. trans.

      isym =  1     identity                                     

 cryst.   s( 1) = (     1          0          0      )
                  (     0          1          0      )
                  (     0          0          1      )

 cart.    s( 1) = (  1.0000000  0.0000000  0.0000000 )
                  (  0.0000000  1.0000000  0.0000000 )
                  (  0.0000000  0.0000000  1.0000000 )


      isym =  2     180 deg rotation - cart. axis [0,0,1]        

 cryst.   s( 2) = (     0          1         -1      )
                  (     1          0         -1      )
                  (     0          0         -1      )

 cart.    s( 2) = ( -1.0000000  0.0000000  0.0000000 )
                  (  0.0000000 -1.0000000  0.0000000 )
                  (  0.0000000  0.0000000  1.0000000 )


      isym =  3     180 deg rotation - cart. axis [0,1,0]        

 cryst.   s( 3) = (    -1          0          0      )
                  (    -1          0          1      )
                  (    -1          1          0      )

 cart.    s( 3) = ( -1.0000000  0.0000000  0.0000000 )
                  (  0.0000000  1.0000000  0.0000000 )
                  (  0.0000000  0.0000000 -1.0000000 )


      isym =  4     180 deg rotation - cart. axis [1,0,0]        

 cryst.   s( 4) = (     0         -1          1      )
                  (     0         -1          0      )
                  (     1         -1          0      )

 cart.    s( 4) = (  1.0000000  0.0000000  0.0000000 )
                  (  0.0000000 -1.0000000  0.0000000 )
                  (  0.0000000  0.0000000 -1.0000000 )


      isym =  5     180 deg rotation - cart. axis [1,1,0]        

 cryst.   s( 5) = (     0         -1          0      )    f =(  0.2500000 )
                  (    -1          0          0      )       (  0.2500000 )
                  (     0          0         -1      )       (  0.2500000 )

 cart.    s( 5) = (  0.0000000  1.0000000  0.0000000 )    f =( -0.2500000 )
                  (  1.0000000  0.0000000  0.0000000 )       (  0.2500000 )
                  (  0.0000000  0.0000000 -1.0000000 )       (  0.2500000 )


      isym =  6     180 deg rotation - cart. axis [1,-1,0]       

 cryst.   s( 6) = (    -1          0          1      )    f =(  0.2500000 )
                  (     0         -1          1      )       (  0.2500000 )
                  (     0          0          1      )       (  0.2500000 )

 cart.    s( 6) = (  0.0000000 -1.0000000  0.0000000 )    f =( -0.2500000 )
                  ( -1.0000000  0.0000000  0.0000000 )       (  0.2500000 )
                  (  0.0000000  0.0000000 -1.0000000 )       (  0.2500000 )


      isym =  7      90 deg rotation - cart. axis [0,0,-1]       

 cryst.   s( 7) = (     0          1          0      )    f =(  0.2500000 )
                  (     0          1         -1      )       (  0.2500000 )
                  (    -1          1          0      )       (  0.2500000 )

 cart.    s( 7) = (  0.0000000  1.0000000  0.0000000 )    f =( -0.2500000 )
                  ( -1.0000000  0.0000000  0.0000000 )       (  0.2500000 )
                  (  0.0000000  0.0000000  1.0000000 )       (  0.2500000 )


      isym =  8      90 deg rotation - cart. axis [0,0,1]        

 cryst.   s( 8) = (     1          0         -1      )    f =(  0.2500000 )
                  (     1          0          0      )       (  0.2500000 )
                  (     1         -1          0      )       (  0.2500000 )

 cart.    s( 8) = (  0.0000000 -1.0000000  0.0000000 )    f =( -0.2500000 )
                  (  1.0000000  0.0000000  0.0000000 )       (  0.2500000 )
                  (  0.0000000  0.0000000  1.0000000 )       (  0.2500000 )


      isym =  9     180 deg rotation - cart. axis [1,0,1]        

 cryst.   s( 9) = (    -1          0          0      )    f =(  0.2500000 )
                  (     0          0         -1      )       (  0.2500000 )
                  (     0         -1          0      )       (  0.2500000 )

 cart.    s( 9) = (  0.0000000  0.0000000  1.0000000 )    f =( -0.2500000 )
                  (  0.0000000 -1.0000000  0.0000000 )       (  0.2500000 )
                  (  1.0000000  0.0000000  0.0000000 )       (  0.2500000 )


      isym = 10     180 deg rotation - cart. axis [-1,0,1]       

 cryst.   s(10) = (     1          0          0      )    f =(  0.2500000 )
                  (     1         -1          0      )       (  0.2500000 )
                  (     1          0         -1      )       (  0.2500000 )

 cart.    s(10) = (  0.0000000  0.0000000 -1.0000000 )    f =( -0.2500000 )
                  (  0.0000000 -1.0000000  0.0000000 )       (  0.2500000 )
                  ( -1.0000000  0.0000000  0.0000000 )       (  0.2500000 )


      isym = 11      90 deg rotation - cart. axis [0,1,0]        

 cryst.   s(11) = (     0          1         -1      )    f =(  0.2500000 )
                  (    -1          1          0      )       (  0.2500000 )
                  (     0          1          0      )       (  0.2500000 )

 cart.    s(11) = (  0.0000000  0.0000000  1.0000000 )    f =( -0.2500000 )
                  (  0.0000000  1.0000000  0.0000000 )       (  0.2500000 )
                  ( -1.0000000  0.0000000  0.0000000 )       (  0.2500000 )


      isym = 12      90 deg rotation - cart. axis [0,-1,0]       

 cryst.   s(12) = (     0         -1          1      )    f =(  0.2500000 )
                  (     0          0          1      )       (  0.2500000 )
                  (    -1          0          1      )       (  0.2500000 )

 cart.    s(12) = (  0.0000000  0.0000000 -1.0000000 )    f =( -0.2500000 )
                  (  0.0000000  1.0000000  0.0000000 )       (  0.2500000 )
                  (  1.0000000  0.0000000  0.0000000 )       (  0.2500000 )


      isym = 13     180 deg rotation - cart. axis [0,1,1]        

 cryst.   s(13) = (    -1          1          0      )    f =(  0.2500000 )
                  (     0          1          0      )       (  0.2500000 )
                  (     0          1         -1      )       (  0.2500000 )

 cart.    s(13) = ( -1.0000000  0.0000000  0.0000000 )    f =( -0.2500000 )
                  (  0.0000000  0.0000000  1.0000000 )       (  0.2500000 )
                  (  0.0000000  1.0000000  0.0000000 )       (  0.2500000 )


      isym = 14     180 deg rotation - cart. axis [0,1,-1]       

 cryst.   s(14) = (     0          0         -1      )    f =(  0.2500000 )
                  (     0         -1          0      )       (  0.2500000 )
                  (    -1          0          0      )       (  0.2500000 )

 cart.    s(14) = ( -1.0000000  0.0000000  0.0000000 )    f =( -0.2500000 )
                  (  0.0000000  0.0000000 -1.0000000 )       (  0.2500000 )
                  (  0.0000000 -1.0000000  0.0000000 )       (  0.2500000 )


      isym = 15      90 deg rotation - cart. axis [-1,0,0]       

 cryst.   s(15) = (     0          0          1      )    f =(  0.2500000 )
                  (    -1          0          1      )       (  0.2500000 )
                  (     0         -1          1      )       (  0.2500000 )

 cart.    s(15) = (  1.0000000  0.0000000  0.0000000 )    f =( -0.2500000 )
                  (  0.0000000  0.0000000  1.0000000 )       (  0.2500000 )
                  (  0.0000000 -1.0000000  0.0000000 )       (  0.2500000 )


      isym = 16      90 deg rotation - cart. axis [1,0,0]        

 cryst.   s(16) = (     1         -1          0      )    f =(  0.2500000 )
                  (     1          0         -1      )       (  0.2500000 )
                  (     1          0          0      )       (  0.2500000 )

 cart.    s(16) = (  1.0000000  0.0000000  0.0000000 )    f =( -0.2500000 )
                  (  0.0000000  0.0000000 -1.0000000 )       (  0.2500000 )
                  (  0.0000000  1.0000000  0.0000000 )       (  0.2500000 )


      isym = 17     120 deg rotation - cart. axis [-1,-1,-1]     

 cryst.   s(17) = (    -1          0          1      )
                  (    -1          1          0      )
                  (    -1          0          0      )

 cart.    s(17) = (  0.0000000  1.0000000  0.0000000 )
                  (  0.0000000  0.0000000  1.0000000 )
                  (  1.0000000  0.0000000  0.0000000 )


      isym = 18     120 deg rotation - cart. axis [-1,1,1]       

 cryst.   s(18) = (     0          1          0      )
                  (     0          0          1      )
                  (     1          0          0      )

 cart.    s(18) = (  0.0000000 -1.0000000  0.0000000 )
                  (  0.0000000  0.0000000  1.0000000 )
                  ( -1.0000000  0.0000000  0.0000000 )


      isym = 19     120 deg rotation - cart. axis [1,1,-1]       

 cryst.   s(19) = (     1          0         -1      )
                  (     0          0         -1      )
                  (     0          1         -1      )

 cart.    s(19) = (  0.0000000  1.0000000  0.0000000 )
                  (  0.0000000  0.0000000 -1.0000000 )
                  ( -1.0000000  0.0000000  0.0000000 )


      isym = 20     120 deg rotation - cart. axis [1,-1,1]       

 cryst.   s(20) = (     0         -1          0      )
                  (     1         -1          0      )
                  (     0         -1          1      )

 cart.    s(20) = (  0.0000000 -1.0000000  0.0000000 )
                  (  0.0000000  0.0000000 -1.0000000 )
                  (  1.0000000  0.0000000  0.0000000 )


      isym = 21     120 deg rotation - cart. axis [1,1,1]        

 cryst.   s(21) = (     0          0         -1      )
                  (     0          1         -1      )
                  (     1          0         -1      )

 cart.    s(21) = (  0.0000000  0.0000000  1.0000000 )
                  (  1.0000000  0.0000000  0.0000000 )
                  (  0.0000000  1.0000000  0.0000000 )


      isym = 22     120 deg rotation - cart. axis [-1,1,-1]      

 cryst.   s(22) = (    -1          1          0      )
                  (    -1          0          0      )
                  (    -1          0          1      )

 cart.    s(22) = (  0.0000000  0.0000000  1.0000000 )
                  ( -1.0000000  0.0000000  0.0000000 )
                  (  0.0000000 -1.0000000  0.0000000 )


      isym = 23     120 deg rotation - cart. axis [1,-1,-1]      

 cryst.   s(23) = (     0          0          1      )
                  (     1          0          0      )
                  (     0          1          0      )

 cart.    s(23) = (  0.0000000  0.0000000 -1.0000000 )
                  ( -1.0000000  0.0000000  0.0000000 )
                  (  0.0000000  1.0000000  0.0000000 )


      isym = 24     120 deg rotation - cart. axis [-1,-1,1]      

 cryst.   s(24) = (     1         -1          0      )
                  (     0         -1          1      )
                  (     0         -1          0      )

 cart.    s(24) = (  0.0000000  0.0000000 -1.0000000 )
                  (  1.0000000  0.0000000  0.0000000 )
                  (  0.0000000 -1.0000000  0.0000000 )


      isym = 25     inversion                                    

 cryst.   s(25) = (    -1          0          0      )    f =(  0.2500000 )
                  (     0         -1          0      )       (  0.2500000 )
                  (     0          0         -1      )       (  0.2500000 )

 cart.    s(25) = ( -1.0000000  0.0000000  0.0000000 )    f =( -0.2500000 )
                  (  0.0000000 -1.0000000  0.0000000 )       (  0.2500000 )
                  (  0.0000000  0.0000000 -1.0000000 )       (  0.2500000 )


      isym = 26     inv. 180 deg rotation - cart. axis [0,0,1]   

 cryst.   s(26) = (     0         -1          1      )    f =(  0.2500000 )
                  (    -1          0          1      )       (  0.2500000 )
                  (     0          0          1      )       (  0.2500000 )

 cart.    s(26) = (  1.0000000  0.0000000  0.0000000 )    f =( -0.2500000 )
                  (  0.0000000  1.0000000  0.0000000 )       (  0.2500000 )
                  (  0.0000000  0.0000000 -1.0000000 )       (  0.2500000 )


      isym = 27     inv. 180 deg rotation - cart. axis [0,1,0]   

 cryst.   s(27) = (     1          0          0      )    f =(  0.2500000 )
                  (     1          0         -1      )       (  0.2500000 )
                  (     1         -1          0      )       (  0.2500000 )

 cart.    s(27) = (  1.0000000  0.0000000  0.0000000 )    f =( -0.2500000 )
                  (  0.0000000 -1.0000000  0.0000000 )       (  0.2500000 )
                  (  0.0000000  0.0000000  1.0000000 )       (  0.2500000 )


      isym = 28     inv. 180 deg rotation - cart. axis [1,0,0]   

 cryst.   s(28) = (     0          1         -1      )    f =(  0.2500000 )
                  (     0          1          0      )       (  0.2500000 )
                  (    -1          1          0      )       (  0.2500000 )

 cart.    s(28) = ( -1.0000000  0.0000000  0.0000000 )    f =( -0.2500000 )
                  (  0.0000000  1.0000000  0.0000000 )       (  0.2500000 )
                  (  0.0000000  0.0000000  1.0000000 )       (  0.2500000 )


      isym = 29     inv. 180 deg rotation - cart. axis [1,1,0]   

 cryst.   s(29) = (     0          1          0      )
                  (     1          0          0      )
                  (     0          0          1      )

 cart.    s(29) = (  0.0000000 -1.0000000  0.0000000 )
                  ( -1.0000000  0.0000000  0.0000000 )
                  (  0.0000000  0.0000000  1.0000000 )


      isym = 30     inv. 180 deg rotation - cart. axis [1,-1,0]  

 cryst.   s(30) = (     1          0         -1      )
                  (     0          1         -1      )
                  (     0          0         -1      )

 cart.    s(30) = (  0.0000000  1.0000000  0.0000000 )
                  (  1.0000000  0.0000000  0.0000000 )
                  (  0.0000000  0.0000000  1.0000000 )


      isym = 31     inv.  90 deg rotation - cart. axis [0,0,-1]  

 cryst.   s(31) = (     0         -1          0      )
                  (     0         -1          1      )
                  (     1         -1          0      )

 cart.    s(31) = (  0.0000000 -1.0000000  0.0000000 )
                  (  1.0000000  0.0000000  0.0000000 )
                  (  0.0000000  0.0000000 -1.0000000 )


      isym = 32     inv.  90 deg rotation - cart. axis [0,0,1]   

 cryst.   s(32) = (    -1          0          1      )
                  (    -1          0          0      )
                  (    -1          1          0      )

 cart.    s(32) = (  0.0000000  1.0000000  0.0000000 )
                  ( -1.0000000  0.0000000  0.0000000 )
                  (  0.0000000  0.0000000 -1.0000000 )


      isym = 33     inv. 180 deg rotation - cart. axis [1,0,1]   

 cryst.   s(33) = (     1          0          0      )
                  (     0          0          1      )
                  (     0          1          0      )

 cart.    s(33) = (  0.0000000  0.0000000 -1.0000000 )
                  (  0.0000000  1.0000000  0.0000000 )
                  ( -1.0000000  0.0000000  0.0000000 )


      isym = 34     inv. 180 deg rotation - cart. axis [-1,0,1]  

 cryst.   s(34) = (    -1          0          0      )
                  (    -1          1          0      )
                  (    -1          0          1      )

 cart.    s(34) = (  0.0000000  0.0000000  1.0000000 )
                  (  0.0000000  1.0000000  0.0000000 )
                  (  1.0000000  0.0000000  0.0000000 )


      isym = 35     inv.  90 deg rotation - cart. axis [0,1,0]   

 cryst.   s(35) = (     0         -1          1      )
                  (     1         -1          0      )
                  (     0         -1          0      )

 cart.    s(35) = (  0.0000000  0.0000000 -1.0000000 )
                  (  0.0000000 -1.0000000  0.0000000 )
                  (  1.0000000  0.0000000  0.0000000 )


      isym = 36     inv.  90 deg rotation - cart. axis [0,-1,0]  

 cryst.   s(36) = (     0          1         -1      )
                  (     0          0         -1      )
                  (     1          0         -1      )

 cart.    s(36) = (  0.0000000  0.0000000  1.0000000 )
                  (  0.0000000 -1.0000000  0.0000000 )
                  ( -1.0000000  0.0000000  0.0000000 )


      isym = 37     inv. 180 deg rotation - cart. axis [0,1,1]   

 cryst.   s(37) = (     1         -1          0      )
                  (     0         -1          0      )
                  (     0         -1          1      )

 cart.    s(37) = (  1.0000000  0.0000000  0.0000000 )
                  (  0.0000000  0.0000000 -1.0000000 )
                  (  0.0000000 -1.0000000  0.0000000 )


      isym = 38     inv. 180 deg rotation - cart. axis [0,1,-1]  

 cryst.   s(38) = (     0          0          1      )
                  (     0          1          0      )
                  (     1          0          0      )

 cart.    s(38) = (  1.0000000  0.0000000  0.0000000 )
                  (  0.0000000  0.0000000  1.0000000 )
                  (  0.0000000  1.0000000  0.0000000 )


      isym = 39     inv.  90 deg rotation - cart. axis [-1,0,0]  

 cryst.   s(39) = (     0          0         -1      )
                  (     1          0         -1      )
                  (     0          1         -1      )

 cart.    s(39) = ( -1.0000000  0.0000000  0.0000000 )
                  (  0.0000000  0.0000000 -1.0000000 )
                  (  0.0000000  1.0000000  0.0000000 )


      isym = 40     inv.  90 deg rotation - cart. axis [1,0,0]   

 cryst.   s(40) = (    -1          1          0      )
                  (    -1          0          1      )
                  (    -1          0          0      )

 cart.    s(40) = ( -1.0000000  0.0000000  0.0000000 )
                  (  0.0000000  0.0000000  1.0000000 )
                  (  0.0000000 -1.0000000  0.0000000 )


      isym = 41     inv. 120 deg rotation - cart. axis [-1,-1,-1]

 cryst.   s(41) = (     1          0         -1      )    f =(  0.2500000 )
                  (     1         -1          0      )       (  0.2500000 )
                  (     1          0          0      )       (  0.2500000 )

 cart.    s(41) = (  0.0000000 -1.0000000  0.0000000 )    f =( -0.2500000 )
                  (  0.0000000  0.0000000 -1.0000000 )       (  0.2500000 )
                  ( -1.0000000  0.0000000  0.0000000 )       (  0.2500000 )


      isym = 42     inv. 120 deg rotation - cart. axis [-1,1,1]  

 cryst.   s(42) = (     0         -1          0      )    f =(  0.2500000 )
                  (     0          0         -1      )       (  0.2500000 )
                  (    -1          0          0      )       (  0.2500000 )

 cart.    s(42) = (  0.0000000  1.0000000  0.0000000 )    f =( -0.2500000 )
                  (  0.0000000  0.0000000 -1.0000000 )       (  0.2500000 )
                  (  1.0000000  0.0000000  0.0000000 )       (  0.2500000 )


      isym = 43     inv. 120 deg rotation - cart. axis [1,1,-1]  

 cryst.   s(43) = (    -1          0          1      )    f =(  0.2500000 )
                  (     0          0          1      )       (  0.2500000 )
                  (     0         -1          1      )       (  0.2500000 )

 cart.    s(43) = (  0.0000000 -1.0000000  0.0000000 )    f =( -0.2500000 )
                  (  0.0000000  0.0000000  1.0000000 )       (  0.2500000 )
                  (  1.0000000  0.0000000  0.0000000 )       (  0.2500000 )


      isym = 44     inv. 120 deg rotation - cart. axis [1,-1,1]  

 cryst.   s(44) = (     0          1          0      )    f =(  0.2500000 )
                  (    -1          1          0      )       (  0.2500000 )
                  (     0          1         -1      )       (  0.2500000 )

 cart.    s(44) = (  0.0000000  1.0000000  0.0000000 )    f =( -0.2500000 )
                  (  0.0000000  0.0000000  1.0000000 )       (  0.2500000 )
                  ( -1.0000000  0.0000000  0.0000000 )       (  0.2500000 )


      isym = 45     inv. 120 deg rotation - cart. axis [1,1,1]   

 cryst.   s(45) = (     0          0          1      )    f =(  0.2500000 )
                  (     0         -1          1      )       (  0.2500000 )
                  (    -1          0          1      )       (  0.2500000 )

 cart.    s(45) = (  0.0000000  0.0000000 -1.0000000 )    f =( -0.2500000 )
                  ( -1.0000000  0.0000000  0.0000000 )       (  0.2500000 )
                  (  0.0000000 -1.0000000  0.0000000 )       (  0.2500000 )


      isym = 46     inv. 120 deg rotation - cart. axis [-1,1,-1] 

 cryst.   s(46) = (     1         -1          0      )    f =(  0.2500000 )
                  (     1          0          0      )       (  0.2500000 )
                  (     1          0         -1      )       (  0.2500000 )

 cart.    s(46) = (  0.0000000  0.0000000 -1.0000000 )    f =( -0.2500000 )
                  (  1.0000000  0.0000000  0.0000000 )       (  0.2500000 )
                  (  0.0000000  1.0000000  0.0000000 )       (  0.2500000 )


      isym = 47     inv. 120 deg rotation - cart. axis [1,-1,-1] 

 cryst.   s(47) = (     0          0         -1      )    f =(  0.2500000 )
                  (    -1          0          0      )       (  0.2500000 )
                  (     0         -1          0      )       (  0.2500000 )

 cart.    s(47) = (  0.0000000  0.0000000  1.0000000 )    f =( -0.2500000 )
                  (  1.0000000  0.0000000  0.0000000 )       (  0.2500000 )
                  (  0.0000000 -1.0000000  0.0000000 )       (  0.2500000 )


      isym = 48     inv. 120 deg rotation - cart. axis [-1,-1,1] 

 cryst.   s(48) = (    -1          1          0      )    f =(  0.2500000 )
                  (     0          1         -1      )       (  0.2500000 )
                  (     0          1          0      )       (  0.2500000 )

 cart.    s(48) = (  0.0000000  0.0000000  1.0000000 )    f =( -0.2500000 )
                  ( -1.0000000  0.0000000  0.0000000 )       (  0.2500000 )
                  (  0.0000000  1.0000000  0.0000000 )       (  0.2500000 )


     point group O_h (m-3m) 
     there are 10 classes
     the character table:

       E     8C3   3C2   6C4   6C2'  i     8S6   3s_h  6S4   6s_d 
A_1g   1.00  1.00  1.00  1.00  1.00  1.00  1.00  1.00  1.00  1.00
A_2g   1.00  1.00  1.00 -1.00 -1.00  1.00  1.00  1.00 -1.00 -1.00
E_g    2.00 -1.00  2.00  0.00  0.00  2.00 -1.00  2.00  0.00  0.00
T_1g   3.00  0.00 -1.00  1.00 -1.00  3.00  0.00 -1.00  1.00 -1.00
T_2g   3.00  0.00 -1.00 -1.00  1.00  3.00  0.00 -1.00 -1.00  1.00
A_1u   1.00  1.00  1.00  1.00  1.00 -1.00 -1.00 -1.00 -1.00 -1.00
A_2u   1.00  1.00  1.00 -1.00 -1.00 -1.00 -1.00 -1.00  1.00  1.00
E_u    2.00 -1.00  2.00  0.00  0.00 -2.00  1.00 -2.00  0.00  0.00
T_1u   3.00  0.00 -1.00  1.00 -1.00 -3.00  0.00  1.00 -1.00  1.00
T_2u   3.00  0.00 -1.00 -1.00  1.00 -3.00  0.00  1.00  1.00 -1.00

     the symmetry operations in each class and the name of the first element:

     E        1
          identity                                               
     8C3     17   19   20   18   24   21   22   23
          120 deg rotation - cart. axis [-1,-1,-1]               
     3C2      2    4    3
          180 deg rotation - cart. axis [0,0,1]                  
     6C4      7    8   15   16   12   11
           90 deg rotation - cart. axis [0,0,-1]                 
     6C2'     5    6   14   13   10    9
          180 deg rotation - cart. axis [1,1,0]                  
     i       25
          inversion                                              
     8S6     41   43   44   42   48   45   46   47
          inv. 120 deg rotation - cart. axis [-1,-1,-1]          
     3s_h    26   28   27
          inv. 180 deg rotation - cart. axis [0,0,1]             
     6S4     31   32   39   40   36   35
          inv.  90 deg rotation - cart. axis [0,0,-1]            
     6s_d    29   30   38   37   34   33
          inv. 180 deg rotation - cart. axis [1,1,0]             

   Cartesian axes

     site n.     atom                  positions (alat units)
         1        Si     tau(   1) = (   0.0000000   0.0000000   0.0000000  )
         2        Si     tau(   2) = (   0.2500000   0.2500000   0.2500000  )

   Crystallographic axes

     site n.     atom                  positions (cryst. coord.)
         1        Si     tau(   1) = (  0.0000000  0.0000000  0.0000000  )
         2        Si     tau(   2) = ( -0.2500000  0.7500000 -0.2500000  )

     number of k points=    91
                       cart. coord. in units 2pi/alat
        k(    1) = (   0.5000000   0.5000000   0.5000000), wk =   0.0219780
        k(    2) = (   0.4750000   0.4750000   0.4750000), wk =   0.0219780
        k(    3) = (   0.4500000   0.4500000   0.4500000), wk =   0.0219780
        k(    4) = (   0.4250000   0.4250000   0.4250000), wk =   0.0219780
        k(    5) = (   0.4000000   0.4000000   0.4000000), wk =   0.0219780
        k(    6) = (   0.3750000   0.3750000   0.3750000), wk =   0.0219780
        k(    7) = (   0.3500000   0.3500000   0.3500000), wk =   0.0219780
        k(    8) = (   0.3250000   0.3250000   0.3250000), wk =   0.0219780
        k(    9) = (   0.3000000   0.3000000   0.3000000), wk =   0.0219780
        k(   10) = (   0.2750000   0.2750000   0.2750000), wk =   0.0219780
        k(   11) = (   0.2500000   0.2500000   0.2500000), wk =   0.0219780
        k(   12) = (   0.2250000   0.2250000   0.2250000), wk =   0.0219780
        k(   13) = (   0.2000000   0.2000000   0.2000000), wk =   0.0219780
        k(   14) = (   0.1750000   0.1750000   0.1750000), wk =   0.0219780
        k(   15) = (   0.1500000   0.1500000   0.1500000), wk =   0.0219780
        k(   16) = (   0.1250000   0.1250000   0.1250000), wk =   0.0219780
        k(   17) = (   0.1000000   0.1000000   0.1000000), wk =   0.0219780
        k(   18) = (   0.0750000   0.0750000   0.0750000), wk =   0.0219780
        k(   19) = (   0.0500000   0.0500000   0.0500000), wk =   0.0219780
        k(   20) = (   0.0250000   0.0250000   0.0250000), wk =   0.0219780
        k(   21) = (   0.0000000   0.0000000   0.0000000), wk =   0.0219780
        k(   22) = (   0.0333333   0.0000000   0.0000000), wk =   0.0219780
        k(   23) = (   0.0666667   0.0000000   0.0000000), wk =   0.0219780
        k(   24) = (   0.1000000   0.0000000   0.0000000), wk =   0.0219780
        k(   25) = (   0.1333333   0.0000000   0.0000000), wk =   0.0219780
        k(   26) = (   0.1666667   0.0000000   0.0000000), wk =   0.0219780
        k(   27) = (   0.2000000   0.0000000   0.0000000), wk =   0.0219780
        k(   28) = (   0.2333333   0.0000000   0.0000000), wk =   0.0219780
        k(   29) = (   0.2666667   0.0000000   0.0000000), wk =   0.0219780
        k(   30) = (   0.3000000   0.0000000   0.0000000), wk =   0.0219780
        k(   31) = (   0.3333333   0.0000000   0.0000000), wk =   0.0219780
        k(   32) = (   0.3666667   0.0000000   0.0000000), wk =   0.0219780
        k(   33) = (   0.4000000   0.0000000   0.0000000), wk =   0.0219780
        k(   34) = (   0.4333333   0.0000000   0.0000000), wk =   0.0219780
        k(   35) = (   0.4666667   0.0000000   0.0000000), wk =   0.0219780
        k(   36) = (   0.5000000   0.0000000   0.0000000), wk =   0.0219780
        k(   37) = (   0.5333333   0.0000000   0.0000000), wk =   0.0219780
        k(   38) = (   0.5666667   0.0000000   0.0000000), wk =   0.0219780
        k(   39) = (   0.6000000   0.0000000   0.0000000), wk =   0.0219780
        k(   40) = (   0.6333333   0.0000000   0.0000000), wk =   0.0219780
        k(   41) = (   0.6666667   0.0000000   0.0000000), wk =   0.0219780
        k(   42) = (   0.7000000   0.0000000   0.0000000), wk =   0.0219780
        k(   43) = (   0.7333333   0.0000000   0.0000000), wk =   0.0219780
        k(   44) = (   0.7666667   0.0000000   0.0000000), wk =   0.0219780
        k(   45) = (   0.8000000   0.0000000   0.0000000), wk =   0.0219780
        k(   46) = (   0.8333333   0.0000000   0.0000000), wk =   0.0219780
        k(   47) = (   0.8666667   0.0000000   0.0000000), wk =   0.0219780
        k(   48) = (   0.9000000   0.0000000   0.0000000), wk =   0.0219780
        k(   49) = (   0.9333333   0.0000000   0.0000000), wk =   0.0219780
        k(   50) = (   0.9666667   0.0000000   0.0000000), wk =   0.0219780
        k(   51) = (   1.0000000   0.0000000   0.0000000), wk =   0.0219780
        k(   52) = (   1.0000000   0.0250000   0.0250000), wk =   0.0219780
        k(   53) = (   1.0000000   0.0500000   0.0500000), wk =   0.0219780
        k(   54) = (   1.0000000   0.0750000   0.0750000), wk =   0.0219780
        k(   55) = (   1.0000000   0.1000000   0.1000000), wk =   0.0219780
        k(   56) = (   1.0000000   0.1250000   0.1250000), wk =   0.0219780
        k(   57) = (   1.0000000   0.1500000   0.1500000), wk =   0.0219780
        k(   58) = (   1.0000000   0.1750000   0.1750000), wk =   0.0219780
        k(   59) = (   1.0000000   0.2000000   0.2000000), wk =   0.0219780
        k(   60) = (   1.0000000   0.2250000   0.2250000), wk =   0.0219780
        k(   61) = (   1.0000000   0.2500000   0.2500000), wk =   0.0219780
        k(   62) = (   0.9666667   0.2416667   0.2416667), wk =   0.0219780
        k(   63) = (   0.9333333   0.2333333   0.2333333), wk =   0.0219780
        k(   64) = (   0.9000000   0.2250000   0.2250000), wk =   0.0219780
        k(   65) = (   0.8666667   0.2166667   0.2166667), wk =   0.0219780
        k(   66) = (   0.8333333   0.2083333   0.2083333), wk =   0.0219780
        k(   67) = (   0.8000000   0.2000000   0.2000000), wk =   0.0219780
        k(   68) = (   0.7666667   0.1916667   0.1916667), wk =   0.0219780
        k(   69) = (   0.7333333   0.1833333   0.1833333), wk =   0.0219780
        k(   70) = (   0.7000000   0.1750000   0.1750000), wk =   0.0219780
        k(   71) = (   0.6666667   0.1666667   0.1666667), wk =   0.0219780
        k(   72) = (   0.6333333   0.1583333   0.1583333), wk =   0.0219780
        k(   73) = (   0.6000000   0.1500000   0.1500000), wk =   0.0219780
        k(   74) = (   0.5666667   0.1416667   0.1416667), wk =   0.0219780
        k(   75) = (   0.5333333   0.1333333   0.1333333), wk =   0.0219780
        k(   76) = (   0.5000000   0.1250000   0.1250000), wk =   0.0219780
        k(   77) = (   0.4666667   0.1166667   0.1166667), wk =   0.0219780
        k(   78) = (   0.4333333   0.1083333   0.1083333), wk =   0.0219780
        k(   79) = (   0.4000000   0.1000000   0.1000000), wk =   0.0219780
        k(   80) = (   0.3666667   0.0916667   0.0916667), wk =   0.0219780
        k(   81) = (   0.3333333   0.0833333   0.0833333), wk =   0.0219780
        k(   82) = (   0.3000000   0.0750000   0.0750000), wk =   0.0219780
        k(   83) = (   0.2666667   0.0666667   0.0666667), wk =   0.0219780
        k(   84) = (   0.2333333   0.0583333   0.0583333), wk =   0.0219780
        k(   85) = (   0.2000000   0.0500000   0.0500000), wk =   0.0219780
        k(   86) = (   0.1666667   0.0416667   0.0416667), wk =   0.0219780
        k(   87) = (   0.1333333   0.0333333   0.0333333), wk =   0.0219780
        k(   88) = (   0.1000000   0.0250000   0.0250000), wk =   0.0219780
        k(   89) = (   0.0666667   0.0166667   0.0166667), wk =   0.0219780
        k(   90) = (   0.0333333   0.0083333   0.0083333), wk =   0.0219780
        k(   91) = (   0.0000000   0.0000000   0.0000000), wk =   0.0219780

                       cryst. coord.
        k(    1) = (   0.0000000   0.5000000   0.0000000), wk =   0.0219780
        k(    2) = (   0.0000000   0.4750000   0.0000000), wk =   0.0219780
        k(    3) = (   0.0000000   0.4500000   0.0000000), wk =   0.0219780
        k(    4) = (   0.0000000   0.4250000   0.0000000), wk =   0.0219780
        k(    5) = (   0.0000000   0.4000000   0.0000000), wk =   0.0219780
        k(    6) = (   0.0000000   0.3750000   0.0000000), wk =   0.0219780
        k(    7) = (   0.0000000   0.3500000   0.0000000), wk =   0.0219780
        k(    8) = (   0.0000000   0.3250000   0.0000000), wk =   0.0219780
        k(    9) = (   0.0000000   0.3000000   0.0000000), wk =   0.0219780
        k(   10) = (   0.0000000   0.2750000   0.0000000), wk =   0.0219780
        k(   11) = (   0.0000000   0.2500000   0.0000000), wk =   0.0219780
        k(   12) = (   0.0000000   0.2250000   0.0000000), wk =   0.0219780
        k(   13) = (   0.0000000   0.2000000   0.0000000), wk =   0.0219780
        k(   14) = (   0.0000000   0.1750000   0.0000000), wk =   0.0219780
        k(   15) = (   0.0000000   0.1500000   0.0000000), wk =   0.0219780
        k(   16) = (   0.0000000   0.1250000   0.0000000), wk =   0.0219780
        k(   17) = (   0.0000000   0.1000000   0.0000000), wk =   0.0219780
        k(   18) = (   0.0000000   0.0750000   0.0000000), wk =   0.0219780
        k(   19) = (   0.0000000   0.0500000   0.0000000), wk =   0.0219780
        k(   20) = (   0.0000000   0.0250000   0.0000000), wk =   0.0219780
        k(   21) = (   0.0000000   0.0000000   0.0000000), wk =   0.0219780
        k(   22) = (  -0.0166667   0.0000000  -0.0166667), wk =   0.0219780
        k(   23) = (  -0.0333333   0.0000000  -0.0333333), wk =   0.0219780
        k(   24) = (  -0.0500000   0.0000000  -0.0500000), wk =   0.0219780
        k(   25) = (  -0.0666667   0.0000000  -0.0666667), wk =   0.0219780
        k(   26) = (  -0.0833333   0.0000000  -0.0833333), wk =   0.0219780
        k(   27) = (  -0.1000000   0.0000000  -0.1000000), wk =   0.0219780
        k(   28) = (  -0.1166667   0.0000000  -0.1166667), wk =   0.0219780
        k(   29) = (  -0.1333333   0.0000000  -0.1333333), wk =   0.0219780
        k(   30) = (  -0.1500000   0.0000000  -0.1500000), wk =   0.0219780
        k(   31) = (  -0.1666667   0.0000000  -0.1666667), wk =   0.0219780
        k(   32) = (  -0.1833333   0.0000000  -0.1833333), wk =   0.0219780
        k(   33) = (  -0.2000000   0.0000000  -0.2000000), wk =   0.0219780
        k(   34) = (  -0.2166667   0.0000000  -0.2166667), wk =   0.0219780
        k(   35) = (  -0.2333333   0.0000000  -0.2333333), wk =   0.0219780
        k(   36) = (  -0.2500000   0.0000000  -0.2500000), wk =   0.0219780
        k(   37) = (  -0.2666667   0.0000000  -0.2666667), wk =   0.0219780
        k(   38) = (  -0.2833333   0.0000000  -0.2833333), wk =   0.0219780
        k(   39) = (  -0.3000000   0.0000000  -0.3000000), wk =   0.0219780
        k(   40) = (  -0.3166667   0.0000000  -0.3166667), wk =   0.0219780
        k(   41) = (  -0.3333333   0.0000000  -0.3333333), wk =   0.0219780
        k(   42) = (  -0.3500000   0.0000000  -0.3500000), wk =   0.0219780
        k(   43) = (  -0.3666667   0.0000000  -0.3666667), wk =   0.0219780
        k(   44) = (  -0.3833333   0.0000000  -0.3833333), wk =   0.0219780
        k(   45) = (  -0.4000000   0.0000000  -0.4000000), wk =   0.0219780
        k(   46) = (  -0.4166667   0.0000000  -0.4166667), wk =   0.0219780
        k(   47) = (  -0.4333333   0.0000000  -0.4333333), wk =   0.0219780
        k(   48) = (  -0.4500000   0.0000000  -0.4500000), wk =   0.0219780
        k(   49) = (  -0.4666667   0.0000000  -0.4666667), wk =   0.0219780
        k(   50) = (  -0.4833333   0.0000000  -0.4833333), wk =   0.0219780
        k(   51) = (  -0.5000000   0.0000000  -0.5000000), wk =   0.0219780
        k(   52) = (  -0.4875000   0.0250000  -0.4875000), wk =   0.0219780
        k(   53) = (  -0.4750000   0.0500000  -0.4750000), wk =   0.0219780
        k(   54) = (  -0.4625000   0.0750000  -0.4625000), wk =   0.0219780
        k(   55) = (  -0.4500000   0.1000000  -0.4500000), wk =   0.0219780
        k(   56) = (  -0.4375000   0.1250000  -0.4375000), wk =   0.0219780
        k(   57) = (  -0.4250000   0.1500000  -0.4250000), wk =   0.0219780
        k(   58) = (  -0.4125000   0.1750000  -0.4125000), wk =   0.0219780
        k(   59) = (  -0.4000000   0.2000000  -0.4000000), wk =   0.0219780
        k(   60) = (  -0.3875000   0.2250000  -0.3875000), wk =   0.0219780
        k(   61) = (  -0.3750000   0.2500000  -0.3750000), wk =   0.0219780
        k(   62) = (  -0.3625000   0.2416667  -0.3625000), wk =   0.0219780
        k(   63) = (  -0.3500000   0.2333333  -0.3500000), wk =   0.0219780
        k(   64) = (  -0.3375000   0.2250000  -0.3375000), wk =   0.0219780
        k(   65) = (  -0.3250000   0.2166667  -0.3250000), wk =   0.0219780
        k(   66) = (  -0.3125000   0.2083333  -0.3125000), wk =   0.0219780
        k(   67) = (  -0.3000000   0.2000000  -0.3000000), wk =   0.0219780
        k(   68) = (  -0.2875000   0.1916667  -0.2875000), wk =   0.0219780
        k(   69) = (  -0.2750000   0.1833333  -0.2750000), wk =   0.0219780
        k(   70) = (  -0.2625000   0.1750000  -0.2625000), wk =   0.0219780
        k(   71) = (  -0.2500000   0.1666667  -0.2500000), wk =   0.0219780
        k(   72) = (  -0.2375000   0.1583333  -0.2375000), wk =   0.0219780
        k(   73) = (  -0.2250000   0.1500000  -0.2250000), wk =   0.0219780
        k(   74) = (  -0.2125000   0.1416667  -0.2125000), wk =   0.0219780
        k(   75) = (  -0.2000000   0.1333333  -0.2000000), wk =   0.0219780
        k(   76) = (  -0.1875000   0.1250000  -0.1875000), wk =   0.0219780
        k(   77) = (  -0.1750000   0.1166667  -0.1750000), wk =   0.0219780
        k(   78) = (  -0.1625000   0.1083333  -0.1625000), wk =   0.0219780
        k(   79) = (  -0.1500000   0.1000000  -0.1500000), wk =   0.0219780
        k(   80) = (  -0.1375000   0.0916667  -0.1375000), wk =   0.0219780
        k(   81) = (  -0.1250000   0.0833333  -0.1250000), wk =   0.0219780
        k(   82) = (  -0.1125000   0.0750000  -0.1125000), wk =   0.0219780
        k(   83) = (  -0.1000000   0.0666667  -0.1000000), wk =   0.0219780
        k(   84) = (  -0.0875000   0.0583333  -0.0875000), wk =   0.0219780
        k(   85) = (  -0.0750000   0.0500000  -0.0750000), wk =   0.0219780
        k(   86) = (  -0.0625000   0.0416667  -0.0625000), wk =   0.0219780
        k(   87) = (  -0.0500000   0.0333333  -0.0500000), wk =   0.0219780
        k(   88) = (  -0.0375000   0.0250000  -0.0375000), wk =   0.0219780
        k(   89) = (  -0.0250000   0.0166667  -0.0250000), wk =   0.0219780
        k(   90) = (  -0.0125000   0.0083333  -0.0125000), wk =   0.0219780
        k(   91) = (   0.0000000   0.0000000   0.0000000), wk =   0.0219780

     Dense  grid:    35749 G-vectors     FFT dimensions: (  48,  48,  48)

     Smooth grid:    12627 G-vectors     FFT dimensions: (  36,  36,  36)

     Dynamical RAM for                 wfc:       0.19 MB

     Dynamical RAM for     wfc (w. buffer):       0.19 MB

     Dynamical RAM for           str. fact:       0.55 MB

     Dynamical RAM for           local pot:       0.00 MB

     Dynamical RAM for          nlocal pot:       0.19 MB

     Dynamical RAM for                qrad:       0.14 MB

     Dynamical RAM for          rho,v,vnew:       4.17 MB

     Dynamical RAM for           G-vectors:       2.14 MB

     Dynamical RAM for          h,s,v(r/c):       0.01 MB

     Dynamical RAM for          <psi|beta>:       0.00 MB

     Dynamical RAM for                 psi:       0.39 MB

     Dynamical RAM for                hpsi:       0.39 MB

     Dynamical RAM for      wfcinit/wfcrot:       0.39 MB

     Estimated static dynamical RAM per process >      12.69 MB

     Estimated max dynamical RAM per process >      13.48 MB

     The potential is recalculated from file :
     ./tmp/silicon.save/charge-density

     Starting wfcs are    8 randomized atomic wfcs

     Band Structure Calculation
     Davidson diagonalization with overlap

     Computing kpt #:     1  of    91
     total cpu time spent up to now is        0.1 secs

     Computing kpt #:     2  of    91
     total cpu time spent up to now is        0.1 secs

     Computing kpt #:     3  of    91
     total cpu time spent up to now is        0.2 secs

     Computing kpt #:     4  of    91
     total cpu time spent up to now is        0.2 secs

     Computing kpt #:     5  of    91
     total cpu time spent up to now is        0.3 secs

     Computing kpt #:     6  of    91
     total cpu time spent up to now is        0.4 secs

     Computing kpt #:     7  of    91
     total cpu time spent up to now is        0.4 secs

     Computing kpt #:     8  of    91
     total cpu time spent up to now is        0.5 secs

     Computing kpt #:     9  of    91
     total cpu time spent up to now is        0.5 secs

     Computing kpt #:    10  of    91
     total cpu time spent up to now is        0.6 secs

     Computing kpt #:    11  of    91
     total cpu time spent up to now is        0.6 secs

     Computing kpt #:    12  of    91
     total cpu time spent up to now is        0.7 secs

     Computing kpt #:    13  of    91
     total cpu time spent up to now is        0.7 secs

     Computing kpt #:    14  of    91
     total cpu time spent up to now is        0.8 secs

     Computing kpt #:    15  of    91
     total cpu time spent up to now is        0.8 secs

     Computing kpt #:    16  of    91
     total cpu time spent up to now is        0.9 secs

     Computing kpt #:    17  of    91
     total cpu time spent up to now is        0.9 secs

     Computing kpt #:    18  of    91
     total cpu time spent up to now is        1.0 secs

     Computing kpt #:    19  of    91
     total cpu time spent up to now is        1.0 secs

     Computing kpt #:    20  of    91
     total cpu time spent up to now is        1.1 secs

     Computing kpt #:    21  of    91
     total cpu time spent up to now is        1.1 secs

     Computing kpt #:    22  of    91
     total cpu time spent up to now is        1.2 secs

     Computing kpt #:    23  of    91
     total cpu time spent up to now is        1.2 secs

     Computing kpt #:    24  of    91
     total cpu time spent up to now is        1.2 secs

     Computing kpt #:    25  of    91
     total cpu time spent up to now is        1.3 secs

     Computing kpt #:    26  of    91
     total cpu time spent up to now is        1.3 secs

     Computing kpt #:    27  of    91
     total cpu time spent up to now is        1.4 secs

     Computing kpt #:    28  of    91
     total cpu time spent up to now is        1.4 secs

     Computing kpt #:    29  of    91
     total cpu time spent up to now is        1.5 secs

     Computing kpt #:    30  of    91
     total cpu time spent up to now is        1.5 secs

     Computing kpt #:    31  of    91
     total cpu time spent up to now is        1.6 secs

     Computing kpt #:    32  of    91
     total cpu time spent up to now is        1.6 secs

     Computing kpt #:    33  of    91
     total cpu time spent up to now is        1.7 secs

     Computing kpt #:    34  of    91
     total cpu time spent up to now is        1.7 secs

     Computing kpt #:    35  of    91
     total cpu time spent up to now is        1.8 secs

     Computing kpt #:    36  of    91
     total cpu time spent up to now is        1.8 secs

     Computing kpt #:    37  of    91
     total cpu time spent up to now is        1.9 secs

     Computing kpt #:    38  of    91
     total cpu time spent up to now is        1.9 secs

     Computing kpt #:    39  of    91
     total cpu time spent up to now is        1.9 secs

     Computing kpt #:    40  of    91
     total cpu time spent up to now is        2.0 secs

     Computing kpt #:    41  of    91
     total cpu time spent up to now is        2.0 secs

     Computing kpt #:    42  of    91
     total cpu time spent up to now is        2.1 secs

     Computing kpt #:    43  of    91
     total cpu time spent up to now is        2.1 secs

     Computing kpt #:    44  of    91
     total cpu time spent up to now is        2.2 secs

     Computing kpt #:    45  of    91
     total cpu time spent up to now is        2.2 secs

     Computing kpt #:    46  of    91
     total cpu time spent up to now is        2.3 secs

     Computing kpt #:    47  of    91
     total cpu time spent up to now is        2.3 secs

     Computing kpt #:    48  of    91
     total cpu time spent up to now is        2.4 secs

     Computing kpt #:    49  of    91
     total cpu time spent up to now is        2.4 secs

     Computing kpt #:    50  of    91
     total cpu time spent up to now is        2.5 secs

     Computing kpt #:    51  of    91
     total cpu time spent up to now is        2.5 secs

     Computing kpt #:    52  of    91
     total cpu time spent up to now is        2.6 secs

     Computing kpt #:    53  of    91
     total cpu time spent up to now is        2.6 secs

     Computing kpt #:    54  of    91
     total cpu time spent up to now is        2.7 secs

     Computing kpt #:    55  of    91
     total cpu time spent up to now is        2.7 secs

     Computing kpt #:    56  of    91
     total cpu time spent up to now is        2.8 secs

     Computing kpt #:    57  of    91
     total cpu time spent up to now is        2.9 secs

     Computing kpt #:    58  of    91
     total cpu time spent up to now is        2.9 secs

     Computing kpt #:    59  of    91
     total cpu time spent up to now is        3.0 secs

     Computing kpt #:    60  of    91
     total cpu time spent up to now is        3.1 secs

     Computing kpt #:    61  of    91
     total cpu time spent up to now is        3.1 secs

     Computing kpt #:    62  of    91
     total cpu time spent up to now is        3.2 secs

     Computing kpt #:    63  of    91
     total cpu time spent up to now is        3.2 secs

     Computing kpt #:    64  of    91
     total cpu time spent up to now is        3.3 secs

     Computing kpt #:    65  of    91
     total cpu time spent up to now is        3.3 secs

     Computing kpt #:    66  of    91
     total cpu time spent up to now is        3.4 secs

     Computing kpt #:    67  of    91
     total cpu time spent up to now is        3.4 secs

     Computing kpt #:    68  of    91
     total cpu time spent up to now is        3.5 secs

     Computing kpt #:    69  of    91
     total cpu time spent up to now is        3.5 secs

     Computing kpt #:    70  of    91
     total cpu time spent up to now is        3.5 secs

     Computing kpt #:    71  of    91
     total cpu time spent up to now is        3.6 secs

     Computing kpt #:    72  of    91
     total cpu time spent up to now is        3.6 secs

     Computing kpt #:    73  of    91
     total cpu time spent up to now is        3.7 secs

     Computing kpt #:    74  of    91
     total cpu time spent up to now is        3.7 secs

     Computing kpt #:    75  of    91
     total cpu time spent up to now is        3.8 secs

     Computing kpt #:    76  of    91
     total cpu time spent up to now is        3.8 secs

     Computing kpt #:    77  of    91
     total cpu time spent up to now is        3.8 secs

     Computing kpt #:    78  of    91
     total cpu time spent up to now is        3.9 secs

     Computing kpt #:    79  of    91
     total cpu time spent up to now is        3.9 secs

     Computing kpt #:    80  of    91
     total cpu time spent up to now is        4.0 secs

     Computing kpt #:    81  of    91
     total cpu time spent up to now is        4.0 secs

     Computing kpt #:    82  of    91
     total cpu time spent up to now is        4.1 secs

     Computing kpt #:    83  of    91
     total cpu time spent up to now is        4.2 secs

     Computing kpt #:    84  of    91
     total cpu time spent up to now is        4.2 secs

     Computing kpt #:    85  of    91
     total cpu time spent up to now is        4.3 secs

     Computing kpt #:    86  of    91
     total cpu time spent up to now is        4.3 secs

     Computing kpt #:    87  of    91
     total cpu time spent up to now is        4.4 secs

     Computing kpt #:    88  of    91
     total cpu time spent up to now is        4.4 secs

     Computing kpt #:    89  of    91
     total cpu time spent up to now is        4.4 secs

     Computing kpt #:    90  of    91
     total cpu time spent up to now is        4.5 secs

     Computing kpt #:    91  of    91
     total cpu time spent up to now is        4.5 secs

     ethr =  1.25E-10,  avg # of iterations = 24.5

     total cpu time spent up to now is        4.5 secs

     End of band structure calculation

          k = 0.5000 0.5000 0.5000 (  1568 PWs)   bands (ev):

    -3.4448  -0.8423   4.9951   4.9951   7.7550   9.5379   9.5379  13.7957

          k = 0.4750 0.4750 0.4750 (  1574 PWs)   bands (ev):

    -3.4820  -0.7896   4.9997   4.9997   7.7601   9.5433   9.5433  13.8043

          k = 0.4500 0.4500 0.4500 (  1580 PWs)   bands (ev):

    -3.5851  -0.6396   5.0132   5.0132   7.7754   9.5592   9.5592  13.8293

          k = 0.4250 0.4250 0.4250 (  1586 PWs)   bands (ev):

    -3.7354  -0.4114   5.0358   5.0358   7.8009   9.5844   9.5844  13.8687

          k = 0.4000 0.4000 0.4000 (  1586 PWs)   bands (ev):

    -3.9137  -0.1243   5.0674   5.0674   7.8365   9.6170   9.6170  13.9182

          k = 0.3750 0.3750 0.3750 (  1592 PWs)   bands (ev):

    -4.1054   0.2069   5.1079   5.1079   7.8820   9.6540   9.6540  13.9681

          k = 0.3500 0.3500 0.3500 (  1597 PWs)   bands (ev):

    -4.3008   0.5719   5.1572   5.1572   7.9371   9.6912   9.6912  13.9972

          k = 0.3250 0.3250 0.3250 (  1594 PWs)   bands (ev):

    -4.4932   0.9637   5.2152   5.2152   8.0016   9.7233   9.7233  13.9582

          k = 0.3000 0.3000 0.3000 (  1600 PWs)   bands (ev):

    -4.6786   1.3774   5.2816   5.2816   8.0749   9.7436   9.7436  13.7875

          k = 0.2750 0.2750 0.2750 (  1588 PWs)   bands (ev):

    -4.8541   1.8093   5.3560   5.3560   8.1563   9.7449   9.7449  13.4839

          k = 0.2500 0.2500 0.2500 (  1582 PWs)   bands (ev):

    -5.0178   2.2565   5.4378   5.4378   8.2448   9.7205   9.7205  13.1048

          k = 0.2250 0.2250 0.2250 (  1579 PWs)   bands (ev):

    -5.1683   2.7159   5.5262   5.5262   8.3390   9.6659   9.6659  12.6908

          k = 0.2000 0.2000 0.2000 (  1576 PWs)   bands (ev):

    -5.3047   3.1847   5.6199   5.6199   8.4370   9.5808   9.5808  12.2604

          k = 0.1750 0.1750 0.1750 (  1570 PWs)   bands (ev):

    -5.4262   3.6593   5.7174   5.7174   8.5361   9.4696   9.4696  11.8224

          k = 0.1500 0.1500 0.1500 (  1570 PWs)   bands (ev):

    -5.5323   4.1351   5.8163   5.8163   8.6324   9.3405   9.3405  11.3834

          k = 0.1250 0.1250 0.1250 (  1570 PWs)   bands (ev):

    -5.6227   4.6057   5.9136   5.9136   8.7205   9.2039   9.2039  10.9514

          k = 0.1000 0.1000 0.1000 (  1570 PWs)   bands (ev):

    -5.6969   5.0613   6.0053   6.0053   8.7920   9.0706   9.0706  10.5395

          k = 0.0750 0.0750 0.0750 (  1570 PWs)   bands (ev):

    -5.7549   5.4854   6.0862   6.0862   8.8352   8.9516   8.9516  10.1702

          k = 0.0500 0.0500 0.0500 (  1588 PWs)   bands (ev):

    -5.7964   5.8502   6.1504   6.1504   8.8363   8.8572   8.8572   9.8794

          k = 0.0250 0.0250 0.0250 (  1615 PWs)   bands (ev):

    -5.8214   6.1099   6.1921   6.1921   8.7963   8.7963   8.8001   9.7033

          k = 0.0000 0.0000 0.0000 (  1591 PWs)   bands (ev):

    -5.8297   6.2065   6.2065   6.2065   8.7753   8.7753   8.7753   9.6480

          k = 0.0333 0.0000 0.0000 (  1615 PWs)   bands (ev):

    -5.8248   6.1740   6.1850   6.1850   8.7624   8.8028   8.8028   9.6795

          k = 0.0667 0.0000 0.0000 (  1595 PWs)   bands (ev):

    -5.8100   6.0799   6.1230   6.1230   8.7246   8.8825   8.8825   9.7705

          k = 0.1000 0.0000 0.0000 (  1579 PWs)   bands (ev):

    -5.7853   5.9335   6.0275   6.0275   8.6638   9.0077   9.0077   9.9096

          k = 0.1333 0.0000 0.0000 (  1579 PWs)   bands (ev):

    -5.7508   5.7458   5.9068   5.9068   8.5832   9.1697   9.1697  10.0814

          k = 0.1667 0.0000 0.0000 (  1571 PWs)   bands (ev):

    -5.7065   5.5271   5.7688   5.7688   8.4863   9.3606   9.3606  10.2681

          k = 0.2000 0.0000 0.0000 (  1571 PWs)   bands (ev):

    -5.6524   5.2858   5.6199   5.6199   8.3768   9.5741   9.5741  10.4480

          k = 0.2333 0.0000 0.0000 (  1575 PWs)   bands (ev):

    -5.5886   5.0279   5.4648   5.4648   8.2582   9.8051   9.8051  10.5921

          k = 0.2667 0.0000 0.0000 (  1575 PWs)   bands (ev):

    -5.5150   4.7580   5.3072   5.3072   8.1337  10.0500  10.0500  10.6639

          k = 0.3000 0.0000 0.0000 (  1575 PWs)   bands (ev):

    -5.4317   4.4793   5.1496   5.1496   8.0062  10.3059  10.3059  10.6345

          k = 0.3333 0.0000 0.0000 (  1579 PWs)   bands (ev):

    -5.3389   4.1941   4.9940   4.9940   7.8779  10.5064  10.5707  10.5707

          k = 0.3667 0.0000 0.0000 (  1591 PWs)   bands (ev):

    -5.2365   3.9040   4.8419   4.8419   7.7508  10.3084  10.8430  10.8430

          k = 0.4000 0.0000 0.0000 (  1599 PWs)   bands (ev):

    -5.1245   3.6103   4.6943   4.6943   7.6266  10.0710  11.1214  11.1214

          k = 0.4333 0.0000 0.0000 (  1587 PWs)   bands (ev):

    -5.0032   3.3138   4.5521   4.5521   7.5068   9.8150  11.4050  11.4050

          k = 0.4667 0.0000 0.0000 (  1587 PWs)   bands (ev):

    -4.8725   3.0154   4.4161   4.4161   7.3925   9.5529  11.6931  11.6931

          k = 0.5000 0.0000 0.0000 (  1587 PWs)   bands (ev):

    -4.7326   2.7155   4.2866   4.2866   7.2847   9.2924  11.9850  11.9850

          k = 0.5333 0.0000 0.0000 (  1596 PWs)   bands (ev):

    -4.5836   2.4148   4.1641   4.1641   7.1842   9.0381  12.2803  12.2803

          k = 0.5667 0.0000 0.0000 (  1596 PWs)   bands (ev):

    -4.4255   2.1137   4.0490   4.0490   7.0918   8.7931  12.5786  12.5786

          k = 0.6000 0.0000 0.0000 (  1588 PWs)   bands (ev):

    -4.2585   1.8127   3.9417   3.9417   7.0080   8.5593  12.8797  12.8797

          k = 0.6333 0.0000 0.0000 (  1580 PWs)   bands (ev):

    -4.0828   1.5123   3.8422   3.8422   6.9335   8.3381  13.1834  13.1834

          k = 0.6667 0.0000 0.0000 (  1580 PWs)   bands (ev):

    -3.8985   1.2128   3.7508   3.7508   6.8688   8.1303  13.4894  13.4894

          k = 0.7000 0.0000 0.0000 (  1584 PWs)   bands (ev):

    -3.7057   0.9147   3.6677   3.6677   6.8142   7.9364  13.7976  13.7976

          k = 0.7333 0.0000 0.0000 (  1600 PWs)   bands (ev):

    -3.5047   0.6186   3.5930   3.5930   6.7701   7.7569  14.1080  14.1080

          k = 0.7667 0.0000 0.0000 (  1600 PWs)   bands (ev):

    -3.2956   0.3248   3.5269   3.5269   6.7370   7.5919  14.4201  14.4201

          k = 0.8000 0.0000 0.0000 (  1604 PWs)   bands (ev):

    -3.0786   0.0340   3.4694   3.4694   6.7152   7.4415  14.7336  14.7336

          k = 0.8333 0.0000 0.0000 (  1600 PWs)   bands (ev):

    -2.8541  -0.2536   3.4206   3.4206   6.7050   7.3056  15.0478  15.0478

          k = 0.8667 0.0000 0.0000 (  1604 PWs)   bands (ev):

    -2.6221  -0.5374   3.3807   3.3807   6.7067   7.1841  15.3611  15.3611

          k = 0.9000 0.0000 0.0000 (  1596 PWs)   bands (ev):

    -2.3831  -0.8170   3.3495   3.3495   6.7206   7.0769  15.6701  15.6701

          k = 0.9333 0.0000 0.0000 (  1596 PWs)   bands (ev):

    -2.1372  -1.0919   3.3272   3.3272   6.7471   6.9837  15.9662  15.9662

          k = 0.9667 0.0000 0.0000 (  1588 PWs)   bands (ev):

    -1.8848  -1.3618   3.3138   3.3138   6.7864   6.9044  16.2213  16.2213

          k = 1.0000 0.0000 0.0000 (  1588 PWs)   bands (ev):

    -1.6262  -1.6262   3.3094   3.3094   6.8387   6.8387  16.3415  16.3415

          k = 1.0000 0.0250 0.0250 (  1588 PWs)   bands (ev):

    -1.6282  -1.6202   3.2702   3.3138   6.8439   6.8958  16.2805  16.3077

          k = 1.0000 0.0500 0.0500 (  1588 PWs)   bands (ev):

    -1.6345  -1.6024   3.1605   3.3273   6.8594   7.0592  16.1142  16.2111

          k = 1.0000 0.0750 0.0750 (  1598 PWs)   bands (ev):

    -1.6460  -1.5727   2.9994   3.3496   6.8853   7.3108  15.8764  16.0631

          k = 1.0000 0.1000 0.1000 (  1596 PWs)   bands (ev):

    -1.6640  -1.5311   2.8079   3.3807   6.9213   7.6306  15.5962  15.8768

          k = 1.0000 0.1250 0.1250 (  1586 PWs)   bands (ev):

    -1.6903  -1.4776   2.6046   3.4205   6.9675   8.0019  15.2929  15.6640

          k = 1.0000 0.1500 0.1500 (  1594 PWs)   bands (ev):

    -1.7273  -1.4124   2.4038   3.4689   7.0237   8.4122  14.9779  15.4335

          k = 1.0000 0.1750 0.1750 (  1600 PWs)   bands (ev):

    -1.7775  -1.3353   2.2162   3.5257   7.0898   8.8529  14.6582  15.1920

          k = 1.0000 0.2000 0.2000 (  1596 PWs)   bands (ev):

    -1.8434  -1.2464   2.0502   3.5907   7.1654   9.3175  14.3383  14.8490

          k = 1.0000 0.2250 0.2250 (  1596 PWs)   bands (ev):

    -1.9271  -1.1457   1.9118   3.6637   7.2504   9.8011  14.0208  14.5177

          k = 1.0000 0.2500 0.2500 (  1580 PWs)   bands (ev):

    -2.0299  -1.0333   1.8052   3.7443   7.3444  10.2993  13.7080  14.1968

          k = 0.9667 0.2417 0.2417 (  1592 PWs)   bands (ev):

    -2.0347  -1.0346   1.8516   3.7207   7.3181  10.1376  13.7303  14.0771

          k = 0.9333 0.2333 0.2333 (  1593 PWs)   bands (ev):

    -2.1235  -0.9566   1.9278   3.7061   7.3045   9.9892  13.6409  13.8643

          k = 0.9000 0.2250 0.2250 (  1595 PWs)   bands (ev):

    -2.2734  -0.8180   2.0289   3.7008   7.3035   9.8548  13.5058  13.6449

          k = 0.8667 0.2167 0.2167 (  1595 PWs)   bands (ev):

    -2.4578  -0.6417   2.1510   3.7048   7.3147   9.7355  13.3547  13.4246

          k = 0.8333 0.2083 0.2083 (  1603 PWs)   bands (ev):

    -2.6597  -0.4417   2.2907   3.7183   7.3374   9.6323  13.1986  13.2050

          k = 0.8000 0.2000 0.2000 (  1603 PWs)   bands (ev):

    -2.8696  -0.2252   2.4450   3.7412   7.3709   9.5467  12.9866  13.0418

          k = 0.7667 0.1917 0.1917 (  1597 PWs)   bands (ev):

    -3.0819   0.0039   2.6117   3.7737   7.4139   9.4801  12.7696  12.8858

          k = 0.7333 0.1833 0.1833 (  1598 PWs)   bands (ev):

    -3.2932   0.2437   2.7885   3.8157   7.4649   9.4343  12.5543  12.7306

          k = 0.7000 0.1750 0.1750 (  1598 PWs)   bands (ev):

    -3.5009   0.4928   2.9736   3.8672   7.5220   9.4114  12.3407  12.5757

          k = 0.6667 0.1667 0.1667 (  1596 PWs)   bands (ev):

    -3.7036   0.7504   3.1653   3.9282   7.5831   9.4134  12.1292  12.4201

          k = 0.6333 0.1583 0.1583 (  1592 PWs)   bands (ev):

    -3.9000   1.0160   3.3618   3.9986   7.6461   9.4421  11.9200  12.2621

          k = 0.6000 0.1500 0.1500 (  1592 PWs)   bands (ev):

    -4.0891   1.2892   3.5618   4.0782   7.7092   9.4988  11.7137  12.1002

          k = 0.5667 0.1417 0.1417 (  1594 PWs)   bands (ev):

    -4.2703   1.5695   3.7639   4.1670   7.7711   9.5835  11.5111  11.9323

          k = 0.5333 0.1333 0.1333 (  1592 PWs)   bands (ev):

    -4.4430   1.8568   3.9667   4.2646   7.8313   9.6944  11.3139  11.7567

          k = 0.5000 0.1250 0.1250 (  1588 PWs)   bands (ev):

    -4.6067   2.1506   4.1689   4.3710   7.8901   9.8268  11.1250  11.5719

          k = 0.4667 0.1167 0.1167 (  1588 PWs)   bands (ev):

    -4.7611   2.4505   4.3695   4.4857   7.9484   9.9708  10.9513  11.3767

          k = 0.4333 0.1083 0.1083 (  1585 PWs)   bands (ev):

    -4.9058   2.7560   4.5671   4.6084   8.0076  10.1028  10.8114  11.1708

          k = 0.4000 0.1000 0.1000 (  1583 PWs)   bands (ev):

    -5.0405   3.0666   4.7385   4.7606   8.0688  10.1683  10.7526  10.9549

          k = 0.3667 0.0917 0.0917 (  1583 PWs)   bands (ev):

    -5.1651   3.3815   4.8755   4.9489   8.1329  10.1176  10.7302  10.8121

          k = 0.3333 0.0833 0.0833 (  1577 PWs)   bands (ev):

    -5.2794   3.6998   5.0184   5.1306   8.2006   9.9929  10.4991  10.9269

          k = 0.3000 0.0750 0.0750 (  1573 PWs)   bands (ev):

    -5.3832   4.0201   5.1663   5.3046   8.2717   9.8431  10.2643  11.0121

          k = 0.2667 0.0667 0.0667 (  1576 PWs)   bands (ev):

    -5.4764   4.3408   5.3176   5.4692   8.3458   9.6877  10.0294  11.0035

          k = 0.2333 0.0583 0.0583 (  1570 PWs)   bands (ev):

    -5.5588   4.6593   5.4704   5.6229   8.4216   9.5339   9.7981  10.8783

          k = 0.2000 0.0500 0.0500 (  1568 PWs)   bands (ev):

    -5.6305   4.9721   5.6220   5.7637   8.4972   9.3852   9.5749  10.6686

          k = 0.1667 0.0417 0.0417 (  1569 PWs)   bands (ev):

    -5.6912   5.2742   5.7687   5.8896   8.5700   9.2432   9.3650  10.4224

          k = 0.1333 0.0333 0.0333 (  1573 PWs)   bands (ev):

    -5.7410   5.5578   5.9057   5.9981   8.6369   9.1094   9.1747  10.1770

          k = 0.1000 0.0250 0.0250 (  1579 PWs)   bands (ev):

    -5.7798   5.8115   6.0262   6.0866   8.6941   8.9860   9.0116   9.9592

          k = 0.0667 0.0167 0.0167 (  1592 PWs)   bands (ev):

    -5.8075   6.0185   6.1222   6.1523   8.7381   8.8795   8.8847   9.7900

          k = 0.0333 0.0083 0.0083 (  1613 PWs)   bands (ev):

    -5.8242   6.1572   6.1847   6.1928   8.7658   8.8034   8.8035   9.6837

          k = 0.0000 0.0000 0.0000 (  1591 PWs)   bands (ev):

    -5.8297   6.2065   6.2065   6.2065   8.7753   8.7753   8.7753   9.6480

     Writing all to output data dir ./tmp/silicon.save/ :
     XML data file, pseudopotentials, collected wavefunctions
 
     init_run     :      0.03s CPU      0.04s WALL (       1 calls)
     electrons    :      4.44s CPU      4.48s WALL (       1 calls)

     Called by init_run:
     wfcinit      :      0.00s CPU      0.00s WALL (       1 calls)
     wfcinit:atom :      0.00s CPU      0.01s WALL (      91 calls)
     wfcinit:wfcr :      0.21s CPU      0.21s WALL (      91 calls)
     potinit      :      0.00s CPU      0.01s WALL (       1 calls)
     hinit0       :      0.01s CPU      0.01s WALL (       1 calls)

     Called by electrons:
     c_bands      :      4.44s CPU      4.48s WALL (       1 calls)
     v_of_rho     :      0.00s CPU      0.00s WALL (       1 calls)
     v_h          :      0.00s CPU      0.00s WALL (       1 calls)
     v_xc         :      0.00s CPU      0.00s WALL (       1 calls)

     Called by c_bands:
     init_us_2    :      0.01s CPU      0.01s WALL (      91 calls)
     cegterg      :      4.19s CPU      4.22s WALL (     157 calls)

     Called by sum_band:

     Called by *egterg:
     cdiaghg      :      0.07s CPU      0.08s WALL (    2316 calls)
     cegterg:over :      0.10s CPU      0.11s WALL (    2225 calls)
     cegterg:upda :      0.06s CPU      0.06s WALL (    2225 calls)
     cegterg:last :      0.09s CPU      0.09s WALL (    1674 calls)
     h_psi        :      4.02s CPU      4.05s WALL (    2473 calls)
     g_psi        :      0.02s CPU      0.02s WALL (    2225 calls)

     Called by h_psi:
     h_psi:calbec :      0.04s CPU      0.04s WALL (    2473 calls)
     vloc_psi     :      3.93s CPU      3.97s WALL (    2473 calls)
                                        0.00s GPU  (    2473 calls)
     add_vuspsi   :      0.03s CPU      0.03s WALL (    2473 calls)

     General routines
     calbec       :      0.04s CPU      0.04s WALL (    2473 calls)
     fft          :      0.00s CPU      0.01s WALL (       4 calls)
     ffts         :      0.00s CPU      0.00s WALL (       1 calls)
     fftw         :      3.51s CPU      3.53s WALL (   29052 calls)
     interpolate  :      0.00s CPU      0.00s WALL (       1 calls)
     davcio       :      0.01s CPU      0.01s WALL (     182 calls)
 
     Parallel routines
 
     PWSCF        :      4.49s CPU      4.54s WALL

 
   This run was terminated on:  18:47:27  28Feb2026            

=------------------------------------------------------------------------------=
   JOB DONE.
=------------------------------------------------------------------------------=
