
     Program PWSCF v.7.5 starts on 28Feb2026 at 11:26:51 

     This program is part of the open-source Quantum ESPRESSO suite
     for quantum simulation of materials; please cite
         "P. Giannozzi et al., J. Phys.:Condens. Matter 21 395502 (2009);
         "P. Giannozzi et al., J. Phys.:Condens. Matter 29 465901 (2017);
         "P. Giannozzi et al., J. Chem. Phys. 152 154105 (2020);
          URL http://www.quantum-espresso.org", 
     in publications or presentations arising from this work. More details at
     http://www.quantum-espresso.org/quote

     Parallel version (MPI), running on     1 processors

     MPI processes distributed on     1 nodes
     3950 MiB available memory on the printing compute node when the environment starts
 
     Waiting for input...
     Reading input from standard input

     Current dimensions of program PWSCF are:
     Max number of different atomic species (ntypx) = 10
     Max number of k-points (npk) =  40000
     Max angular momentum in pseudopotentials (lmaxx) =  4
 
     Subspace diagonalization in iterative solution of the eigenvalue problem:
     a serial algorithm will be used

 
     G-vector sticks info
     --------------------
     sticks:   dense  smooth     PW     G-vecs:    dense   smooth      PW
     Sum         613     613    199                10081    10081    1807
 
     Using Slab Decomposition
 


     bravais-lattice index     =            2
     lattice parameter (alat)  =      10.6000  a.u.
     unit-cell volume          =     297.7540 (a.u.)^3
     number of atoms/cell      =            2
     number of atomic types    =            1
     number of electrons       =         8.00
     number of Kohn-Sham states=            8
     kinetic-energy cutoff     =      40.0000  Ry
     charge density cutoff     =     160.0000  Ry
     scf convergence threshold =      1.0E-06
     mixing beta               =       0.6000
     number of iterations used =            8  plain     mixing
     energy convergence thresh.=      1.0E-04
     force convergence thresh. =      1.0E-03
     press convergence thresh. =      5.0E-01
     Exchange-correlation= SLA  PZ   NOGX NOGC
                           (   1   1   0   0   0   0   0)
     nstep                     =           50


     celldm(1)=  10.600000  celldm(2)=   0.000000  celldm(3)=   0.000000
     celldm(4)=   0.000000  celldm(5)=   0.000000  celldm(6)=   0.000000

     crystal axes: (cart. coord. in units of alat)
               a(1) = (  -0.500000   0.000000   0.500000 )  
               a(2) = (   0.000000   0.500000   0.500000 )  
               a(3) = (  -0.500000   0.500000   0.000000 )  

     reciprocal axes: (cart. coord. in units 2 pi/alat)
               b(1) = ( -1.000000 -1.000000  1.000000 )  
               b(2) = (  1.000000  1.000000  1.000000 )  
               b(3) = ( -1.000000  1.000000 -1.000000 )  


     PseudoPot. # 1 for Si read from file:
     ../../src/pseudos/Si.pz-vbc.UPF
     MD5 check sum: a974d1b8727157e37210f3f86afb6210
     Pseudo is Norm-conserving, Zval =  4.0
     Generated by new atomic code, or converted to UPF format
     Using radial grid of  431 points,  2 beta functions with: 
                l(1) =   0
                l(2) =   1

     atomic species   valence    mass     pseudopotential
     Si                4.00    28.08600     Si( 1.00)

     48 Sym. Ops., with inversion, found (24 have fractional translation)


                                    s                        frac. trans.

      isym =  1     identity                                     

 cryst.   s( 1) = (     1          0          0      )
                  (     0          1          0      )
                  (     0          0          1      )

 cart.    s( 1) = (  1.0000000  0.0000000  0.0000000 )
                  (  0.0000000  1.0000000  0.0000000 )
                  (  0.0000000  0.0000000  1.0000000 )


      isym =  2     180 deg rotation - cart. axis [0,0,1]        

 cryst.   s( 2) = (     0          1         -1      )
                  (     1          0         -1      )
                  (     0          0         -1      )

 cart.    s( 2) = ( -1.0000000  0.0000000  0.0000000 )
                  (  0.0000000 -1.0000000  0.0000000 )
                  (  0.0000000  0.0000000  1.0000000 )


      isym =  3     180 deg rotation - cart. axis [0,1,0]        

 cryst.   s( 3) = (    -1          0          0      )
                  (    -1          0          1      )
                  (    -1          1          0      )

 cart.    s( 3) = ( -1.0000000  0.0000000  0.0000000 )
                  (  0.0000000  1.0000000  0.0000000 )
                  (  0.0000000  0.0000000 -1.0000000 )


      isym =  4     180 deg rotation - cart. axis [1,0,0]        

 cryst.   s( 4) = (     0         -1          1      )
                  (     0         -1          0      )
                  (     1         -1          0      )

 cart.    s( 4) = (  1.0000000  0.0000000  0.0000000 )
                  (  0.0000000 -1.0000000  0.0000000 )
                  (  0.0000000  0.0000000 -1.0000000 )


      isym =  5     180 deg rotation - cart. axis [1,1,0]        

 cryst.   s( 5) = (     0         -1          0      )    f =(  0.2500000 )
                  (    -1          0          0      )       (  0.2500000 )
                  (     0          0         -1      )       (  0.2500000 )

 cart.    s( 5) = (  0.0000000  1.0000000  0.0000000 )    f =( -0.2500000 )
                  (  1.0000000  0.0000000  0.0000000 )       (  0.2500000 )
                  (  0.0000000  0.0000000 -1.0000000 )       (  0.2500000 )


      isym =  6     180 deg rotation - cart. axis [1,-1,0]       

 cryst.   s( 6) = (    -1          0          1      )    f =(  0.2500000 )
                  (     0         -1          1      )       (  0.2500000 )
                  (     0          0          1      )       (  0.2500000 )

 cart.    s( 6) = (  0.0000000 -1.0000000  0.0000000 )    f =( -0.2500000 )
                  ( -1.0000000  0.0000000  0.0000000 )       (  0.2500000 )
                  (  0.0000000  0.0000000 -1.0000000 )       (  0.2500000 )


      isym =  7      90 deg rotation - cart. axis [0,0,-1]       

 cryst.   s( 7) = (     0          1          0      )    f =(  0.2500000 )
                  (     0          1         -1      )       (  0.2500000 )
                  (    -1          1          0      )       (  0.2500000 )

 cart.    s( 7) = (  0.0000000  1.0000000  0.0000000 )    f =( -0.2500000 )
                  ( -1.0000000  0.0000000  0.0000000 )       (  0.2500000 )
                  (  0.0000000  0.0000000  1.0000000 )       (  0.2500000 )


      isym =  8      90 deg rotation - cart. axis [0,0,1]        

 cryst.   s( 8) = (     1          0         -1      )    f =(  0.2500000 )
                  (     1          0          0      )       (  0.2500000 )
                  (     1         -1          0      )       (  0.2500000 )

 cart.    s( 8) = (  0.0000000 -1.0000000  0.0000000 )    f =( -0.2500000 )
                  (  1.0000000  0.0000000  0.0000000 )       (  0.2500000 )
                  (  0.0000000  0.0000000  1.0000000 )       (  0.2500000 )


      isym =  9     180 deg rotation - cart. axis [1,0,1]        

 cryst.   s( 9) = (    -1          0          0      )    f =(  0.2500000 )
                  (     0          0         -1      )       (  0.2500000 )
                  (     0         -1          0      )       (  0.2500000 )

 cart.    s( 9) = (  0.0000000  0.0000000  1.0000000 )    f =( -0.2500000 )
                  (  0.0000000 -1.0000000  0.0000000 )       (  0.2500000 )
                  (  1.0000000  0.0000000  0.0000000 )       (  0.2500000 )


      isym = 10     180 deg rotation - cart. axis [-1,0,1]       

 cryst.   s(10) = (     1          0          0      )    f =(  0.2500000 )
                  (     1         -1          0      )       (  0.2500000 )
                  (     1          0         -1      )       (  0.2500000 )

 cart.    s(10) = (  0.0000000  0.0000000 -1.0000000 )    f =( -0.2500000 )
                  (  0.0000000 -1.0000000  0.0000000 )       (  0.2500000 )
                  ( -1.0000000  0.0000000  0.0000000 )       (  0.2500000 )


      isym = 11      90 deg rotation - cart. axis [0,1,0]        

 cryst.   s(11) = (     0          1         -1      )    f =(  0.2500000 )
                  (    -1          1          0      )       (  0.2500000 )
                  (     0          1          0      )       (  0.2500000 )

 cart.    s(11) = (  0.0000000  0.0000000  1.0000000 )    f =( -0.2500000 )
                  (  0.0000000  1.0000000  0.0000000 )       (  0.2500000 )
                  ( -1.0000000  0.0000000  0.0000000 )       (  0.2500000 )


      isym = 12      90 deg rotation - cart. axis [0,-1,0]       

 cryst.   s(12) = (     0         -1          1      )    f =(  0.2500000 )
                  (     0          0          1      )       (  0.2500000 )
                  (    -1          0          1      )       (  0.2500000 )

 cart.    s(12) = (  0.0000000  0.0000000 -1.0000000 )    f =( -0.2500000 )
                  (  0.0000000  1.0000000  0.0000000 )       (  0.2500000 )
                  (  1.0000000  0.0000000  0.0000000 )       (  0.2500000 )


      isym = 13     180 deg rotation - cart. axis [0,1,1]        

 cryst.   s(13) = (    -1          1          0      )    f =(  0.2500000 )
                  (     0          1          0      )       (  0.2500000 )
                  (     0          1         -1      )       (  0.2500000 )

 cart.    s(13) = ( -1.0000000  0.0000000  0.0000000 )    f =( -0.2500000 )
                  (  0.0000000  0.0000000  1.0000000 )       (  0.2500000 )
                  (  0.0000000  1.0000000  0.0000000 )       (  0.2500000 )


      isym = 14     180 deg rotation - cart. axis [0,1,-1]       

 cryst.   s(14) = (     0          0         -1      )    f =(  0.2500000 )
                  (     0         -1          0      )       (  0.2500000 )
                  (    -1          0          0      )       (  0.2500000 )

 cart.    s(14) = ( -1.0000000  0.0000000  0.0000000 )    f =( -0.2500000 )
                  (  0.0000000  0.0000000 -1.0000000 )       (  0.2500000 )
                  (  0.0000000 -1.0000000  0.0000000 )       (  0.2500000 )


      isym = 15      90 deg rotation - cart. axis [-1,0,0]       

 cryst.   s(15) = (     0          0          1      )    f =(  0.2500000 )
                  (    -1          0          1      )       (  0.2500000 )
                  (     0         -1          1      )       (  0.2500000 )

 cart.    s(15) = (  1.0000000  0.0000000  0.0000000 )    f =( -0.2500000 )
                  (  0.0000000  0.0000000  1.0000000 )       (  0.2500000 )
                  (  0.0000000 -1.0000000  0.0000000 )       (  0.2500000 )


      isym = 16      90 deg rotation - cart. axis [1,0,0]        

 cryst.   s(16) = (     1         -1          0      )    f =(  0.2500000 )
                  (     1          0         -1      )       (  0.2500000 )
                  (     1          0          0      )       (  0.2500000 )

 cart.    s(16) = (  1.0000000  0.0000000  0.0000000 )    f =( -0.2500000 )
                  (  0.0000000  0.0000000 -1.0000000 )       (  0.2500000 )
                  (  0.0000000  1.0000000  0.0000000 )       (  0.2500000 )


      isym = 17     120 deg rotation - cart. axis [-1,-1,-1]     

 cryst.   s(17) = (    -1          0          1      )
                  (    -1          1          0      )
                  (    -1          0          0      )

 cart.    s(17) = (  0.0000000  1.0000000  0.0000000 )
                  (  0.0000000  0.0000000  1.0000000 )
                  (  1.0000000  0.0000000  0.0000000 )


      isym = 18     120 deg rotation - cart. axis [-1,1,1]       

 cryst.   s(18) = (     0          1          0      )
                  (     0          0          1      )
                  (     1          0          0      )

 cart.    s(18) = (  0.0000000 -1.0000000  0.0000000 )
                  (  0.0000000  0.0000000  1.0000000 )
                  ( -1.0000000  0.0000000  0.0000000 )


      isym = 19     120 deg rotation - cart. axis [1,1,-1]       

 cryst.   s(19) = (     1          0         -1      )
                  (     0          0         -1      )
                  (     0          1         -1      )

 cart.    s(19) = (  0.0000000  1.0000000  0.0000000 )
                  (  0.0000000  0.0000000 -1.0000000 )
                  ( -1.0000000  0.0000000  0.0000000 )


      isym = 20     120 deg rotation - cart. axis [1,-1,1]       

 cryst.   s(20) = (     0         -1          0      )
                  (     1         -1          0      )
                  (     0         -1          1      )

 cart.    s(20) = (  0.0000000 -1.0000000  0.0000000 )
                  (  0.0000000  0.0000000 -1.0000000 )
                  (  1.0000000  0.0000000  0.0000000 )


      isym = 21     120 deg rotation - cart. axis [1,1,1]        

 cryst.   s(21) = (     0          0         -1      )
                  (     0          1         -1      )
                  (     1          0         -1      )

 cart.    s(21) = (  0.0000000  0.0000000  1.0000000 )
                  (  1.0000000  0.0000000  0.0000000 )
                  (  0.0000000  1.0000000  0.0000000 )


      isym = 22     120 deg rotation - cart. axis [-1,1,-1]      

 cryst.   s(22) = (    -1          1          0      )
                  (    -1          0          0      )
                  (    -1          0          1      )

 cart.    s(22) = (  0.0000000  0.0000000  1.0000000 )
                  ( -1.0000000  0.0000000  0.0000000 )
                  (  0.0000000 -1.0000000  0.0000000 )


      isym = 23     120 deg rotation - cart. axis [1,-1,-1]      

 cryst.   s(23) = (     0          0          1      )
                  (     1          0          0      )
                  (     0          1          0      )

 cart.    s(23) = (  0.0000000  0.0000000 -1.0000000 )
                  ( -1.0000000  0.0000000  0.0000000 )
                  (  0.0000000  1.0000000  0.0000000 )


      isym = 24     120 deg rotation - cart. axis [-1,-1,1]      

 cryst.   s(24) = (     1         -1          0      )
                  (     0         -1          1      )
                  (     0         -1          0      )

 cart.    s(24) = (  0.0000000  0.0000000 -1.0000000 )
                  (  1.0000000  0.0000000  0.0000000 )
                  (  0.0000000 -1.0000000  0.0000000 )


      isym = 25     inversion                                    

 cryst.   s(25) = (    -1          0          0      )    f =(  0.2500000 )
                  (     0         -1          0      )       (  0.2500000 )
                  (     0          0         -1      )       (  0.2500000 )

 cart.    s(25) = ( -1.0000000  0.0000000  0.0000000 )    f =( -0.2500000 )
                  (  0.0000000 -1.0000000  0.0000000 )       (  0.2500000 )
                  (  0.0000000  0.0000000 -1.0000000 )       (  0.2500000 )


      isym = 26     inv. 180 deg rotation - cart. axis [0,0,1]   

 cryst.   s(26) = (     0         -1          1      )    f =(  0.2500000 )
                  (    -1          0          1      )       (  0.2500000 )
                  (     0          0          1      )       (  0.2500000 )

 cart.    s(26) = (  1.0000000  0.0000000  0.0000000 )    f =( -0.2500000 )
                  (  0.0000000  1.0000000  0.0000000 )       (  0.2500000 )
                  (  0.0000000  0.0000000 -1.0000000 )       (  0.2500000 )


      isym = 27     inv. 180 deg rotation - cart. axis [0,1,0]   

 cryst.   s(27) = (     1          0          0      )    f =(  0.2500000 )
                  (     1          0         -1      )       (  0.2500000 )
                  (     1         -1          0      )       (  0.2500000 )

 cart.    s(27) = (  1.0000000  0.0000000  0.0000000 )    f =( -0.2500000 )
                  (  0.0000000 -1.0000000  0.0000000 )       (  0.2500000 )
                  (  0.0000000  0.0000000  1.0000000 )       (  0.2500000 )


      isym = 28     inv. 180 deg rotation - cart. axis [1,0,0]   

 cryst.   s(28) = (     0          1         -1      )    f =(  0.2500000 )
                  (     0          1          0      )       (  0.2500000 )
                  (    -1          1          0      )       (  0.2500000 )

 cart.    s(28) = ( -1.0000000  0.0000000  0.0000000 )    f =( -0.2500000 )
                  (  0.0000000  1.0000000  0.0000000 )       (  0.2500000 )
                  (  0.0000000  0.0000000  1.0000000 )       (  0.2500000 )


      isym = 29     inv. 180 deg rotation - cart. axis [1,1,0]   

 cryst.   s(29) = (     0          1          0      )
                  (     1          0          0      )
                  (     0          0          1      )

 cart.    s(29) = (  0.0000000 -1.0000000  0.0000000 )
                  ( -1.0000000  0.0000000  0.0000000 )
                  (  0.0000000  0.0000000  1.0000000 )


      isym = 30     inv. 180 deg rotation - cart. axis [1,-1,0]  

 cryst.   s(30) = (     1          0         -1      )
                  (     0          1         -1      )
                  (     0          0         -1      )

 cart.    s(30) = (  0.0000000  1.0000000  0.0000000 )
                  (  1.0000000  0.0000000  0.0000000 )
                  (  0.0000000  0.0000000  1.0000000 )


      isym = 31     inv.  90 deg rotation - cart. axis [0,0,-1]  

 cryst.   s(31) = (     0         -1          0      )
                  (     0         -1          1      )
                  (     1         -1          0      )

 cart.    s(31) = (  0.0000000 -1.0000000  0.0000000 )
                  (  1.0000000  0.0000000  0.0000000 )
                  (  0.0000000  0.0000000 -1.0000000 )


      isym = 32     inv.  90 deg rotation - cart. axis [0,0,1]   

 cryst.   s(32) = (    -1          0          1      )
                  (    -1          0          0      )
                  (    -1          1          0      )

 cart.    s(32) = (  0.0000000  1.0000000  0.0000000 )
                  ( -1.0000000  0.0000000  0.0000000 )
                  (  0.0000000  0.0000000 -1.0000000 )


      isym = 33     inv. 180 deg rotation - cart. axis [1,0,1]   

 cryst.   s(33) = (     1          0          0      )
                  (     0          0          1      )
                  (     0          1          0      )

 cart.    s(33) = (  0.0000000  0.0000000 -1.0000000 )
                  (  0.0000000  1.0000000  0.0000000 )
                  ( -1.0000000  0.0000000  0.0000000 )


      isym = 34     inv. 180 deg rotation - cart. axis [-1,0,1]  

 cryst.   s(34) = (    -1          0          0      )
                  (    -1          1          0      )
                  (    -1          0          1      )

 cart.    s(34) = (  0.0000000  0.0000000  1.0000000 )
                  (  0.0000000  1.0000000  0.0000000 )
                  (  1.0000000  0.0000000  0.0000000 )


      isym = 35     inv.  90 deg rotation - cart. axis [0,1,0]   

 cryst.   s(35) = (     0         -1          1      )
                  (     1         -1          0      )
                  (     0         -1          0      )

 cart.    s(35) = (  0.0000000  0.0000000 -1.0000000 )
                  (  0.0000000 -1.0000000  0.0000000 )
                  (  1.0000000  0.0000000  0.0000000 )


      isym = 36     inv.  90 deg rotation - cart. axis [0,-1,0]  

 cryst.   s(36) = (     0          1         -1      )
                  (     0          0         -1      )
                  (     1          0         -1      )

 cart.    s(36) = (  0.0000000  0.0000000  1.0000000 )
                  (  0.0000000 -1.0000000  0.0000000 )
                  ( -1.0000000  0.0000000  0.0000000 )


      isym = 37     inv. 180 deg rotation - cart. axis [0,1,1]   

 cryst.   s(37) = (     1         -1          0      )
                  (     0         -1          0      )
                  (     0         -1          1      )

 cart.    s(37) = (  1.0000000  0.0000000  0.0000000 )
                  (  0.0000000  0.0000000 -1.0000000 )
                  (  0.0000000 -1.0000000  0.0000000 )


      isym = 38     inv. 180 deg rotation - cart. axis [0,1,-1]  

 cryst.   s(38) = (     0          0          1      )
                  (     0          1          0      )
                  (     1          0          0      )

 cart.    s(38) = (  1.0000000  0.0000000  0.0000000 )
                  (  0.0000000  0.0000000  1.0000000 )
                  (  0.0000000  1.0000000  0.0000000 )


      isym = 39     inv.  90 deg rotation - cart. axis [-1,0,0]  

 cryst.   s(39) = (     0          0         -1      )
                  (     1          0         -1      )
                  (     0          1         -1      )

 cart.    s(39) = ( -1.0000000  0.0000000  0.0000000 )
                  (  0.0000000  0.0000000 -1.0000000 )
                  (  0.0000000  1.0000000  0.0000000 )


      isym = 40     inv.  90 deg rotation - cart. axis [1,0,0]   

 cryst.   s(40) = (    -1          1          0      )
                  (    -1          0          1      )
                  (    -1          0          0      )

 cart.    s(40) = ( -1.0000000  0.0000000  0.0000000 )
                  (  0.0000000  0.0000000  1.0000000 )
                  (  0.0000000 -1.0000000  0.0000000 )


      isym = 41     inv. 120 deg rotation - cart. axis [-1,-1,-1]

 cryst.   s(41) = (     1          0         -1      )    f =(  0.2500000 )
                  (     1         -1          0      )       (  0.2500000 )
                  (     1          0          0      )       (  0.2500000 )

 cart.    s(41) = (  0.0000000 -1.0000000  0.0000000 )    f =( -0.2500000 )
                  (  0.0000000  0.0000000 -1.0000000 )       (  0.2500000 )
                  ( -1.0000000  0.0000000  0.0000000 )       (  0.2500000 )


      isym = 42     inv. 120 deg rotation - cart. axis [-1,1,1]  

 cryst.   s(42) = (     0         -1          0      )    f =(  0.2500000 )
                  (     0          0         -1      )       (  0.2500000 )
                  (    -1          0          0      )       (  0.2500000 )

 cart.    s(42) = (  0.0000000  1.0000000  0.0000000 )    f =( -0.2500000 )
                  (  0.0000000  0.0000000 -1.0000000 )       (  0.2500000 )
                  (  1.0000000  0.0000000  0.0000000 )       (  0.2500000 )


      isym = 43     inv. 120 deg rotation - cart. axis [1,1,-1]  

 cryst.   s(43) = (    -1          0          1      )    f =(  0.2500000 )
                  (     0          0          1      )       (  0.2500000 )
                  (     0         -1          1      )       (  0.2500000 )

 cart.    s(43) = (  0.0000000 -1.0000000  0.0000000 )    f =( -0.2500000 )
                  (  0.0000000  0.0000000  1.0000000 )       (  0.2500000 )
                  (  1.0000000  0.0000000  0.0000000 )       (  0.2500000 )


      isym = 44     inv. 120 deg rotation - cart. axis [1,-1,1]  

 cryst.   s(44) = (     0          1          0      )    f =(  0.2500000 )
                  (    -1          1          0      )       (  0.2500000 )
                  (     0          1         -1      )       (  0.2500000 )

 cart.    s(44) = (  0.0000000  1.0000000  0.0000000 )    f =( -0.2500000 )
                  (  0.0000000  0.0000000  1.0000000 )       (  0.2500000 )
                  ( -1.0000000  0.0000000  0.0000000 )       (  0.2500000 )


      isym = 45     inv. 120 deg rotation - cart. axis [1,1,1]   

 cryst.   s(45) = (     0          0          1      )    f =(  0.2500000 )
                  (     0         -1          1      )       (  0.2500000 )
                  (    -1          0          1      )       (  0.2500000 )

 cart.    s(45) = (  0.0000000  0.0000000 -1.0000000 )    f =( -0.2500000 )
                  ( -1.0000000  0.0000000  0.0000000 )       (  0.2500000 )
                  (  0.0000000 -1.0000000  0.0000000 )       (  0.2500000 )


      isym = 46     inv. 120 deg rotation - cart. axis [-1,1,-1] 

 cryst.   s(46) = (     1         -1          0      )    f =(  0.2500000 )
                  (     1          0          0      )       (  0.2500000 )
                  (     1          0         -1      )       (  0.2500000 )

 cart.    s(46) = (  0.0000000  0.0000000 -1.0000000 )    f =( -0.2500000 )
                  (  1.0000000  0.0000000  0.0000000 )       (  0.2500000 )
                  (  0.0000000  1.0000000  0.0000000 )       (  0.2500000 )


      isym = 47     inv. 120 deg rotation - cart. axis [1,-1,-1] 

 cryst.   s(47) = (     0          0         -1      )    f =(  0.2500000 )
                  (    -1          0          0      )       (  0.2500000 )
                  (     0         -1          0      )       (  0.2500000 )

 cart.    s(47) = (  0.0000000  0.0000000  1.0000000 )    f =( -0.2500000 )
                  (  1.0000000  0.0000000  0.0000000 )       (  0.2500000 )
                  (  0.0000000 -1.0000000  0.0000000 )       (  0.2500000 )


      isym = 48     inv. 120 deg rotation - cart. axis [-1,-1,1] 

 cryst.   s(48) = (    -1          1          0      )    f =(  0.2500000 )
                  (     0          1         -1      )       (  0.2500000 )
                  (     0          1          0      )       (  0.2500000 )

 cart.    s(48) = (  0.0000000  0.0000000  1.0000000 )    f =( -0.2500000 )
                  ( -1.0000000  0.0000000  0.0000000 )       (  0.2500000 )
                  (  0.0000000  1.0000000  0.0000000 )       (  0.2500000 )


     point group O_h (m-3m) 
     there are 10 classes
     the character table:

       E     8C3   3C2   6C4   6C2'  i     8S6   3s_h  6S4   6s_d 
A_1g   1.00  1.00  1.00  1.00  1.00  1.00  1.00  1.00  1.00  1.00
A_2g   1.00  1.00  1.00 -1.00 -1.00  1.00  1.00  1.00 -1.00 -1.00
E_g    2.00 -1.00  2.00  0.00  0.00  2.00 -1.00  2.00  0.00  0.00
T_1g   3.00  0.00 -1.00  1.00 -1.00  3.00  0.00 -1.00  1.00 -1.00
T_2g   3.00  0.00 -1.00 -1.00  1.00  3.00  0.00 -1.00 -1.00  1.00
A_1u   1.00  1.00  1.00  1.00  1.00 -1.00 -1.00 -1.00 -1.00 -1.00
A_2u   1.00  1.00  1.00 -1.00 -1.00 -1.00 -1.00 -1.00  1.00  1.00
E_u    2.00 -1.00  2.00  0.00  0.00 -2.00  1.00 -2.00  0.00  0.00
T_1u   3.00  0.00 -1.00  1.00 -1.00 -3.00  0.00  1.00 -1.00  1.00
T_2u   3.00  0.00 -1.00 -1.00  1.00 -3.00  0.00  1.00  1.00 -1.00

     the symmetry operations in each class and the name of the first element:

     E        1
          identity                                               
     8C3     17   19   20   18   24   21   22   23
          120 deg rotation - cart. axis [-1,-1,-1]               
     3C2      2    4    3
          180 deg rotation - cart. axis [0,0,1]                  
     6C4      7    8   15   16   12   11
           90 deg rotation - cart. axis [0,0,-1]                 
     6C2'     5    6   14   13   10    9
          180 deg rotation - cart. axis [1,1,0]                  
     i       25
          inversion                                              
     8S6     41   43   44   42   48   45   46   47
          inv. 120 deg rotation - cart. axis [-1,-1,-1]          
     3s_h    26   28   27
          inv. 180 deg rotation - cart. axis [0,0,1]             
     6S4     31   32   39   40   36   35
          inv.  90 deg rotation - cart. axis [0,0,-1]            
     6s_d    29   30   38   37   34   33
          inv. 180 deg rotation - cart. axis [1,1,0]             

   Cartesian axes

     site n.     atom                  positions (alat units)
         1        Si     tau(   1) = (   0.0000000   0.0000000   0.0000000  )
         2        Si     tau(   2) = (   0.2500000   0.2500000   0.2500000  )

   Crystallographic axes

     site n.     atom                  positions (cryst. coord.)
         1        Si     tau(   1) = (  0.0000000  0.0000000  0.0000000  )
         2        Si     tau(   2) = ( -0.2500000  0.7500000 -0.2500000  )

     number of k points=    29
                       cart. coord. in units 2pi/alat
        k(    1) = (   0.0000000   0.0000000   0.0000000), wk =   0.0039062
        k(    2) = (  -0.1250000   0.1250000  -0.1250000), wk =   0.0312500
        k(    3) = (  -0.2500000   0.2500000  -0.2500000), wk =   0.0312500
        k(    4) = (  -0.3750000   0.3750000  -0.3750000), wk =   0.0312500
        k(    5) = (   0.5000000  -0.5000000   0.5000000), wk =   0.0156250
        k(    6) = (   0.0000000   0.2500000   0.0000000), wk =   0.0234375
        k(    7) = (  -0.1250000   0.3750000  -0.1250000), wk =   0.0937500
        k(    8) = (  -0.2500000   0.5000000  -0.2500000), wk =   0.0937500
        k(    9) = (   0.6250000  -0.3750000   0.6250000), wk =   0.0937500
        k(   10) = (   0.5000000  -0.2500000   0.5000000), wk =   0.0937500
        k(   11) = (   0.3750000  -0.1250000   0.3750000), wk =   0.0937500
        k(   12) = (   0.2500000   0.0000000   0.2500000), wk =   0.0468750
        k(   13) = (   0.0000000   0.5000000   0.0000000), wk =   0.0234375
        k(   14) = (  -0.1250000   0.6250000  -0.1250000), wk =   0.0937500
        k(   15) = (   0.7500000  -0.2500000   0.7500000), wk =   0.0937500
        k(   16) = (   0.6250000  -0.1250000   0.6250000), wk =   0.0937500
        k(   17) = (   0.5000000   0.0000000   0.5000000), wk =   0.0468750
        k(   18) = (   0.0000000   0.7500000   0.0000000), wk =   0.0234375
        k(   19) = (   0.8750000  -0.1250000   0.8750000), wk =   0.0937500
        k(   20) = (   0.7500000   0.0000000   0.7500000), wk =   0.0468750
        k(   21) = (   0.0000000  -1.0000000   0.0000000), wk =   0.0117188
        k(   22) = (  -0.2500000   0.5000000   0.0000000), wk =   0.0937500
        k(   23) = (   0.6250000  -0.3750000   0.8750000), wk =   0.1875000
        k(   24) = (   0.5000000  -0.2500000   0.7500000), wk =   0.0937500
        k(   25) = (   0.7500000  -0.2500000   1.0000000), wk =   0.0937500
        k(   26) = (   0.6250000  -0.1250000   0.8750000), wk =   0.1875000
        k(   27) = (   0.5000000   0.0000000   0.7500000), wk =   0.0937500
        k(   28) = (  -0.2500000  -1.0000000   0.0000000), wk =   0.0468750
        k(   29) = (  -0.5000000  -1.0000000   0.0000000), wk =   0.0234375

                       cryst. coord.
        k(    1) = (   0.0000000   0.0000000   0.0000000), wk =   0.0039062
        k(    2) = (   0.0000000   0.0000000   0.1250000), wk =   0.0312500
        k(    3) = (   0.0000000   0.0000000   0.2500000), wk =   0.0312500
        k(    4) = (   0.0000000   0.0000000   0.3750000), wk =   0.0312500
        k(    5) = (   0.0000000   0.0000000  -0.5000000), wk =   0.0156250
        k(    6) = (   0.0000000   0.1250000   0.1250000), wk =   0.0234375
        k(    7) = (   0.0000000   0.1250000   0.2500000), wk =   0.0937500
        k(    8) = (   0.0000000   0.1250000   0.3750000), wk =   0.0937500
        k(    9) = (   0.0000000   0.1250000  -0.5000000), wk =   0.0937500
        k(   10) = (   0.0000000   0.1250000  -0.3750000), wk =   0.0937500
        k(   11) = (   0.0000000   0.1250000  -0.2500000), wk =   0.0937500
        k(   12) = (   0.0000000   0.1250000  -0.1250000), wk =   0.0468750
        k(   13) = (   0.0000000   0.2500000   0.2500000), wk =   0.0234375
        k(   14) = (   0.0000000   0.2500000   0.3750000), wk =   0.0937500
        k(   15) = (   0.0000000   0.2500000  -0.5000000), wk =   0.0937500
        k(   16) = (   0.0000000   0.2500000  -0.3750000), wk =   0.0937500
        k(   17) = (   0.0000000   0.2500000  -0.2500000), wk =   0.0468750
        k(   18) = (   0.0000000   0.3750000   0.3750000), wk =   0.0234375
        k(   19) = (   0.0000000   0.3750000  -0.5000000), wk =   0.0937500
        k(   20) = (   0.0000000   0.3750000  -0.3750000), wk =   0.0468750
        k(   21) = (   0.0000000  -0.5000000  -0.5000000), wk =   0.0117188
        k(   22) = (   0.1250000   0.2500000   0.3750000), wk =   0.0937500
        k(   23) = (   0.1250000   0.2500000  -0.5000000), wk =   0.1875000
        k(   24) = (   0.1250000   0.2500000  -0.3750000), wk =   0.0937500
        k(   25) = (   0.1250000   0.3750000  -0.5000000), wk =   0.0937500
        k(   26) = (   0.1250000   0.3750000  -0.3750000), wk =   0.1875000
        k(   27) = (   0.1250000   0.3750000  -0.2500000), wk =   0.0937500
        k(   28) = (   0.1250000  -0.5000000  -0.3750000), wk =   0.0468750
        k(   29) = (   0.2500000  -0.5000000  -0.2500000), wk =   0.0234375

     Dense  grid:    10081 G-vectors     FFT dimensions: (  32,  32,  32)

     Dynamical RAM for                 wfc:       0.16 MB

     Dynamical RAM for     wfc (w. buffer):       4.66 MB

     Dynamical RAM for           str. fact:       0.15 MB

     Dynamical RAM for           local pot:       0.00 MB

     Dynamical RAM for          nlocal pot:       0.16 MB

     Dynamical RAM for                qrad:       0.17 MB

     Dynamical RAM for          rho,v,vnew:       1.21 MB

     Dynamical RAM for               rhoin:       0.40 MB

     Dynamical RAM for            rho*nmix:       2.46 MB

     Dynamical RAM for           G-vectors:       0.65 MB

     Dynamical RAM for          h,s,v(r/c):       0.01 MB

     Dynamical RAM for          <psi|beta>:       0.00 MB

     Dynamical RAM for                 psi:       0.31 MB

     Dynamical RAM for                hpsi:       0.31 MB

     Dynamical RAM for      wfcinit/wfcrot:       0.31 MB

     Estimated static dynamical RAM per process >       8.97 MB

     Estimated max dynamical RAM per process >      12.06 MB

     Initial potential from superposition of free atoms

     starting charge       7.9990, renormalised to       8.0000
     Starting wfcs are    8 randomized atomic wfcs

     total cpu time spent up to now is        0.1 secs

     per-process dynamical memory:    53.1 Mb

     Self-consistent Calculation

     iteration #  1     ecut=    40.00 Ry     beta= 0.60
     Davidson diagonalization with overlap

---- Real-time Memory Report at c_bands before calling an iterative solver
           113 MiB given to the printing process from OS
            51 MiB allocation reported by mallinfo(arena+hblkhd)
          3937 MiB available memory on the node where the printing process lives
------------------
     ethr =  1.00E-02,  avg # of iterations =  4.0

     Threshold (ethr) on eigenvalues was too large:
     Diagonalizing with lowered threshold

     Davidson diagonalization with overlap

---- Real-time Memory Report at c_bands before calling an iterative solver
           113 MiB given to the printing process from OS
            52 MiB allocation reported by mallinfo(arena+hblkhd)
          3886 MiB available memory on the node where the printing process lives
------------------
     ethr =  5.85E-04,  avg # of iterations =  1.5

     total cpu time spent up to now is        0.4 secs

     total energy              =     -15.84149037 Ry
     estimated scf accuracy    <       0.05061677 Ry

     iteration #  2     ecut=    40.00 Ry     beta= 0.60
     Davidson diagonalization with overlap

---- Real-time Memory Report at c_bands before calling an iterative solver
           113 MiB given to the printing process from OS
            54 MiB allocation reported by mallinfo(arena+hblkhd)
          3877 MiB available memory on the node where the printing process lives
------------------
     ethr =  6.33E-04,  avg # of iterations =  1.0

     total cpu time spent up to now is        0.5 secs

     total energy              =     -15.84268694 Ry
     estimated scf accuracy    <       0.00443577 Ry

     iteration #  3     ecut=    40.00 Ry     beta= 0.60
     Davidson diagonalization with overlap

---- Real-time Memory Report at c_bands before calling an iterative solver
           113 MiB given to the printing process from OS
            55 MiB allocation reported by mallinfo(arena+hblkhd)
          3869 MiB available memory on the node where the printing process lives
------------------
     ethr =  5.54E-05,  avg # of iterations =  3.1

     total cpu time spent up to now is        0.6 secs

     total energy              =     -15.84290067 Ry
     estimated scf accuracy    <       0.00009845 Ry

     iteration #  4     ecut=    40.00 Ry     beta= 0.60
     Davidson diagonalization with overlap

---- Real-time Memory Report at c_bands before calling an iterative solver
           114 MiB given to the printing process from OS
            55 MiB allocation reported by mallinfo(arena+hblkhd)
          3853 MiB available memory on the node where the printing process lives
------------------
     ethr =  1.23E-06,  avg # of iterations =  3.7

     total cpu time spent up to now is        0.7 secs

     End of self-consistent calculation

          k = 0.0000 0.0000 0.0000 (  1243 PWs)   bands (ev):

    -6.2168   5.0752   5.0752   5.0752   7.2823   7.5806   7.5806   7.5806

     occupation numbers 
     1.0000   1.0000   1.0000   1.0000   0.0000   0.0000   0.0000   0.0000

          k =-0.1250 0.1250-0.1250 (  1279 PWs)   bands (ev):

    -6.0291   3.4888   4.8134   4.8134   7.1943   7.9651   7.9651   8.9432

     occupation numbers 
     1.0000   1.0000   1.0000   1.0000   0.0000   0.0000   0.0000   0.0000

          k =-0.2500 0.2500-0.2500 (  1287 PWs)   bands (ev):

    -5.4829   1.3092   4.3769   4.3769   6.7043   8.4775   8.4775  11.0908

     occupation numbers 
     1.0000   1.0000   1.0000   1.0000   0.0000   0.0000   0.0000   0.0000

          k =-0.3750 0.3750-0.3750 (  1275 PWs)   bands (ev):

    -4.6710  -0.5532   4.0683   4.0683   6.3434   8.5008   8.5008  12.5240

     occupation numbers 
     1.0000   1.0000   1.0000   1.0000   0.0000   0.0000   0.0000   0.0000

          k = 0.5000-0.5000 0.5000 (  1260 PWs)   bands (ev):

    -4.1069  -1.4754   3.9619   3.9619   6.2171   8.4236   8.4236  12.4717

     occupation numbers 
     1.0000   1.0000   1.0000   1.0000   0.0000   0.0000   0.0000   0.0000

          k = 0.0000 0.2500 0.0000 (  1287 PWs)   bands (ev):

    -5.9658   3.6398   4.3521   4.3521   7.0537   8.5321   8.6055   8.6055

     occupation numbers 
     1.0000   1.0000   1.0000   1.0000   0.0000   0.0000   0.0000   0.0000

          k =-0.1250 0.3750-0.1250 (  1284 PWs)   bands (ev):

    -5.5353   1.9153   3.8800   3.9012   7.1469   8.3233   9.3248   9.6718

     occupation numbers 
     1.0000   1.0000   1.0000   1.0000   0.0000   0.0000   0.0000   0.0000

          k =-0.2500 0.5000-0.2500 (  1280 PWs)   bands (ev):

    -4.7915   0.0282   3.3415   3.6256   7.1424   8.4524   9.3999  10.3366

     occupation numbers 
     1.0000   1.0000   1.0000   1.0000   0.0000   0.0000   0.0000   0.0000

          k = 0.6250-0.3750 0.6250 (  1264 PWs)   bands (ev):

    -4.0215  -1.2959   2.9318   3.6399   7.0323   8.4372   9.1085  12.0402

     occupation numbers 
     1.0000   1.0000   1.0000   1.0000   0.0000   0.0000   0.0000   0.0000

          k = 0.5000-0.2500 0.5000 (  1272 PWs)   bands (ev):

    -4.2373  -0.9638   2.7774   3.9062   7.1298   8.5843   8.8867  12.4272

     occupation numbers 
     1.0000   1.0000   1.0000   1.0000   0.0000   0.0000   0.0000   0.0000

          k = 0.3750-0.1250 0.3750 (  1282 PWs)   bands (ev):

    -5.0706   0.6305   2.9425   4.3543   7.4258   8.6458   8.7815  10.8514

     occupation numbers 
     1.0000   1.0000   1.0000   1.0000   0.0000   0.0000   0.0000   0.0000

          k = 0.2500 0.0000 0.2500 (  1275 PWs)   bands (ev):

    -5.7202   2.4168   3.6046   4.7957   7.6920   8.1014   8.2478   9.9878

     occupation numbers 
     1.0000   1.0000   1.0000   1.0000   0.0000   0.0000   0.0000   0.0000

          k = 0.0000 0.5000 0.0000 (  1283 PWs)   bands (ev):

    -5.2220   1.5520   3.3571   3.3571   6.2313   8.1045  10.4812  10.4812

     occupation numbers 
     1.0000   1.0000   1.0000   1.0000   0.0000   0.0000   0.0000   0.0000

          k =-0.1250 0.6250-0.1250 (  1276 PWs)   bands (ev):

    -4.5715   0.2513   2.6323   3.0604   6.4437   7.9114  10.6038  11.0117

     occupation numbers 
     1.0000   1.0000   1.0000   1.0000   0.0000   0.0000   0.0000   0.0000

          k = 0.7500-0.2500 0.7500 (  1271 PWs)   bands (ev):

    -3.7345  -1.0460   1.8309   3.0585   6.6115   9.3551  10.3064  10.7563

     occupation numbers 
     1.0000   1.0000   1.0000   1.0000   0.0000   0.0000   0.0000   0.0000

          k = 0.6250-0.1250 0.6250 (  1272 PWs)   bands (ev):

    -3.5576  -1.2707   1.4172   3.3469   6.8891  10.1432  10.3392  11.6187

     occupation numbers 
     1.0000   1.0000   1.0000   1.0000   0.0000   0.0000   0.0000   0.0000

          k = 0.5000 0.0000 0.5000 (  1278 PWs)   bands (ev):

    -4.3471  -0.2225   1.6571   3.8540   7.3887   9.6404   9.8959  10.6330

     occupation numbers 
     1.0000   1.0000   1.0000   1.0000   0.0000   0.0000   0.0000   0.0000

          k = 0.0000 0.7500 0.0000 (  1274 PWs)   bands (ev):

    -4.0167  -0.5112   2.6927   2.6927   5.7696   6.6856  12.5645  12.5645

     occupation numbers 
     1.0000   1.0000   1.0000   1.0000   0.0000   0.0000   0.0000   0.0000

          k = 0.8750-0.1250 0.8750 (  1273 PWs)   bands (ev):

    -3.1981  -1.5102   1.9523   2.6205   6.0499   7.0438  12.7475  12.8401

     occupation numbers 
     1.0000   1.0000   1.0000   1.0000   0.0000   0.0000   0.0000   0.0000

          k = 0.7500 0.0000 0.7500 (  1260 PWs)   bands (ev):

    -2.8194  -1.8600   1.1775   2.8558   6.3317   9.0486  12.0754  12.4852

     occupation numbers 
     1.0000   1.0000   1.0000   1.0000   0.0000   0.0000   0.0000   0.0000

          k = 0.0000-1.0000 0.0000 (  1266 PWs)   bands (ev):

    -2.4121  -2.4121   2.4642   2.4642   5.8874   5.8874  14.2646  14.2646

     occupation numbers 
     1.0000   1.0000   1.0000   1.0000   0.0000   0.0000   0.0000   0.0000

          k =-0.2500 0.5000 0.0000 (  1283 PWs)   bands (ev):

    -4.9965   0.8769   2.6071   3.7607   7.4442   8.5341   9.2525  10.2489

     occupation numbers 
     1.0000   1.0000   1.0000   1.0000   0.0000   0.0000   0.0000   0.0000

          k = 0.6250-0.3750 0.8750 (  1268 PWs)   bands (ev):

    -4.1889  -0.5335   2.0174   3.3159   7.8052   8.4568   9.8279  10.7042

     occupation numbers 
     1.0000   1.0000   1.0000   1.0000   0.0000   0.0000   0.0000   0.0000

          k = 0.5000-0.2500 0.7500 (  1264 PWs)   bands (ev):

    -3.6097  -1.3737   1.8794   3.1131   7.8676   8.2047  10.6284  11.9002

     occupation numbers 
     1.0000   1.0000   1.0000   1.0000   0.0000   0.0000   0.0000   0.0000

          k = 0.7500-0.2500 1.0000 (  1271 PWs)   bands (ev):

    -3.8396  -0.7123   2.0128   2.5722   6.9931   7.6884  10.4473  12.5172

     occupation numbers 
     1.0000   1.0000   1.0000   1.0000   0.0000   0.0000   0.0000   0.0000

          k = 0.6250-0.1250 0.8750 (  1268 PWs)   bands (ev):

    -3.0533  -1.5942   1.3848   2.3899   7.4171   9.2173   9.9923  12.0086

     occupation numbers 
     1.0000   1.0000   1.0000   1.0000   0.0000   0.0000   0.0000   0.0000

          k = 0.5000 0.0000 0.7500 (  1268 PWs)   bands (ev):

    -3.3733  -1.2564   1.2351   2.7284   7.8471   9.4130   9.9855  11.6948

     occupation numbers 
     1.0000   1.0000   1.0000   1.0000   0.0000   0.0000   0.0000   0.0000

          k =-0.2500-1.0000 0.0000 (  1274 PWs)   bands (ev):

    -2.3497  -2.3497   1.9710   1.9710   7.0389   7.0389  12.3902  12.3904

     occupation numbers 
     1.0000   1.0000   1.0000   1.0000   0.0000   0.0000   0.0000   0.0000

          k =-0.5000-1.0000 0.0000 (  1256 PWs)   bands (ev):

    -2.2820  -2.2820   1.5883   1.5883   9.2751   9.2751   9.6750   9.6750

     occupation numbers 
     1.0000   1.0000   1.0000   1.0000   0.0000   0.0000   0.0000   0.0000

     highest occupied, lowest unoccupied level (ev):     5.0752    5.7696

!    total energy              =     -15.84291607 Ry
     estimated scf accuracy    <       0.00000063 Ry

     The total energy is the sum of the following terms:
     one-electron contribution =       3.93698833 Ry
     hartree contribution      =       1.17756866 Ry
     xc contribution           =      -4.69544119 Ry
     ewald contribution        =     -16.26203187 Ry

     convergence has been achieved in   4 iterations

     Forces acting on atoms (cartesian axes, Ry/au):

     atom    1 type  1   force =     0.00000000    0.00000000    0.00000000
     atom    2 type  1   force =     0.00000000    0.00000000    0.00000000
     The non-local contrib.  to forces
     atom    1 type  1   force =     0.00000000    0.00000000    0.00000000
     atom    2 type  1   force =     0.00000000   -0.00000000    0.00000000
     The ionic contribution  to forces
     atom    1 type  1   force =    -0.00000000   -0.00000000   -0.00000000
     atom    2 type  1   force =     0.00000000    0.00000000    0.00000000
     The local contribution  to forces
     atom    1 type  1   force =     0.00000000   -0.00000000   -0.00000000
     atom    2 type  1   force =    -0.00000000   -0.00000000    0.00000000
     The core correction contribution to forces
     atom    1 type  1   force =     0.00000000    0.00000000    0.00000000
     atom    2 type  1   force =     0.00000000    0.00000000    0.00000000
     The Hubbard contrib.    to forces
     atom    1 type  1   force =     0.00000000    0.00000000    0.00000000
     atom    2 type  1   force =     0.00000000    0.00000000    0.00000000
     The SCF correction term to forces
     atom    1 type  1   force =     0.00000000   -0.00000000   -0.00000000
     atom    2 type  1   force =     0.00000000   -0.00000000   -0.00000000

     Total force =     0.000000     Total SCF correction =     0.000000


     Computing stress (Cartesian axis) and pressure

          total   stress  (Ry/bohr**3)                   (kbar)     P=      -84.63
  -0.00057530   0.00000000  -0.00000000          -84.63        0.00       -0.00
   0.00000000  -0.00057530   0.00000000            0.00      -84.63        0.00
   0.00000000   0.00000000  -0.00057530            0.00        0.00      -84.63

     kinetic stress (kbar)   1964.57      0.00     -0.00
                                0.00   1964.57      0.00
                                0.00     -0.00   1964.57

     local   stress (kbar)  -1339.46     -0.00     -0.00
                               -0.00  -1339.46     -0.00
                               -0.00     -0.00  -1339.46

     nonloc. stress (kbar)   2479.12      0.00     -0.00
                                0.00   2479.12      0.00
                                0.00      0.00   2479.12

     hartree stress (kbar)    193.93     -0.00     -0.00
                               -0.00    193.93      0.00
                               -0.00      0.00    193.93

     exc-cor stress (kbar)   -704.70      0.00      0.00
                                0.00   -704.70      0.00
                                0.00      0.00   -704.70

     corecor stress (kbar)      0.00      0.00      0.00
                                0.00      0.00      0.00
                                0.00      0.00      0.00

     ewald   stress (kbar)  -2678.08      0.00      0.00
                                0.00  -2678.08      0.00
                                0.00      0.00  -2678.08

     hubbard stress (kbar)      0.00      0.00      0.00
                                0.00      0.00      0.00
                                0.00      0.00      0.00

     DFT-D   stress (kbar)      0.00      0.00      0.00
                                0.00      0.00      0.00
                                0.00      0.00      0.00

     XDM     stress (kbar)      0.00      0.00      0.00
                                0.00      0.00      0.00
                                0.00      0.00      0.00

     dft-nl  stress (kbar)      0.00      0.00      0.00
                                0.00      0.00      0.00
                                0.00      0.00      0.00

     TS-vdW  stress (kbar)      0.00      0.00      0.00
                                0.00      0.00      0.00
                                0.00      0.00      0.00

     MDB     stress (kbar)      0.00      0.00      0.00
                                0.00      0.00      0.00
                                0.00      0.00      0.00

     3D-RISM stress (kbar)      0.00      0.00      0.00
                                0.00      0.00      0.00
                                0.00      0.00      0.00


     BFGS Geometry Optimization
     Energy error            =      7.5E-03 Ry
     Gradient error          =      0.0E+00 Ry/Bohr
     Cell gradient error     =      8.5E+01 kbar

     number of scf cycles    =   1
     number of bfgs steps    =   0

     enthalpy           new  =     -15.8429160714 Ry

     new trust radius        =       0.0496356337 bohr
     new conv_thr            =       0.0000010000 Ry

     new unit-cell volume =    285.09054 a.u.^3 (    42.24606 Ang^3 )
     density =      2.20792 g/cm^3

CELL_PARAMETERS (alat= 10.60000000)
  -0.492808744   0.000000000   0.492808744
  -0.000000000   0.492808744   0.492808744
  -0.492808744   0.492808744   0.000000000

ATOMIC_POSITIONS (alat)
Si               0.0000000000        0.0000000000        0.0000000000
Si               0.2464043718        0.2464043718        0.2464043718



     Writing config-only to output data dir ./tmp/silicon.save/ :
     XML data file
     NEW-OLD atomic charge density approx. for the potential
     New effective cutoffs (rho, wfc):  163.48   41.16

     total cpu time spent up to now is        0.8 secs

     per-process dynamical memory:    53.4 Mb

     Self-consistent Calculation

     iteration #  1     ecut=    40.00 Ry     beta= 0.60
     Davidson diagonalization with overlap

---- Real-time Memory Report at c_bands before calling an iterative solver
           114 MiB given to the printing process from OS
            52 MiB allocation reported by mallinfo(arena+hblkhd)
          3824 MiB available memory on the node where the printing process lives
------------------
     ethr =  1.00E-06,  avg # of iterations =  5.7

     total cpu time spent up to now is        1.0 secs

     total energy              =     -15.84908755 Ry
     estimated scf accuracy    <       0.00007339 Ry

     iteration #  2     ecut=    40.00 Ry     beta= 0.60
     Davidson diagonalization with overlap

---- Real-time Memory Report at c_bands before calling an iterative solver
           114 MiB given to the printing process from OS
            55 MiB allocation reported by mallinfo(arena+hblkhd)
          3774 MiB available memory on the node where the printing process lives
------------------
     ethr =  9.17E-07,  avg # of iterations =  1.0

     total cpu time spent up to now is        1.1 secs

     total energy              =     -15.84909278 Ry
     estimated scf accuracy    <       0.00000285 Ry

     iteration #  3     ecut=    40.00 Ry     beta= 0.60
     Davidson diagonalization with overlap

---- Real-time Memory Report at c_bands before calling an iterative solver
           114 MiB given to the printing process from OS
            55 MiB allocation reported by mallinfo(arena+hblkhd)
          3661 MiB available memory on the node where the printing process lives
------------------
     ethr =  3.57E-08,  avg # of iterations =  2.0

     total cpu time spent up to now is        1.2 secs

     End of self-consistent calculation

          k = 0.0000 0.0000 0.0000 (  1243 PWs)   bands (ev):

    -6.0718   5.4976   5.4976   5.4976   8.0284   8.0284   8.0284   8.1681

     occupation numbers 
     1.0000   1.0000   1.0000   1.0000   0.0000   0.0000   0.0000   0.0000

          k =-0.1268 0.1268-0.1268 (  1279 PWs)   bands (ev):

    -5.8769   3.9124   5.2240   5.2240   7.7869   8.4293   8.4293   9.6678

     occupation numbers 
     1.0000   1.0000   1.0000   1.0000   0.0000   0.0000   0.0000   0.0000

          k =-0.2536 0.2536-0.2536 (  1287 PWs)   bands (ev):

    -5.3086   1.6677   4.7725   4.7725   7.2862   8.9447   8.9447  11.8408

     occupation numbers 
     1.0000   1.0000   1.0000   1.0000   0.0000   0.0000   0.0000   0.0000

          k =-0.3805 0.3805-0.3805 (  1275 PWs)   bands (ev):

    -4.4590  -0.2659   4.4556   4.4556   6.9213   8.9353   8.9353  13.0789

     occupation numbers 
     1.0000   1.0000   1.0000   1.0000   0.0000   0.0000   0.0000   0.0000

          k = 0.5073-0.5073 0.5073 (  1260 PWs)   bands (ev):

    -3.8595  -1.2352   4.3466   4.3466   6.7939   8.8435   8.8435  12.9698

     occupation numbers 
     1.0000   1.0000   1.0000   1.0000   0.0000   0.0000   0.0000   0.0000

          k = 0.0000 0.2536 0.0000 (  1287 PWs)   bands (ev):

    -5.8111   4.1152   4.7381   4.7381   7.4816   9.1005   9.1005   9.3277

     occupation numbers 
     1.0000   1.0000   1.0000   1.0000   0.0000   0.0000   0.0000   0.0000

          k =-0.1268 0.3805-0.1268 (  1284 PWs)   bands (ev):

    -5.3637   2.3196   4.2483   4.2919   7.5918   8.9385   9.8382  10.1541

     occupation numbers 
     1.0000   1.0000   1.0000   1.0000   0.0000   0.0000   0.0000   0.0000

          k =-0.2536 0.5073-0.2536 (  1280 PWs)   bands (ev):

    -4.5876   0.3545   3.7179   3.9876   7.6360   8.9757   9.8817  10.8279

     occupation numbers 
     1.0000   1.0000   1.0000   1.0000   0.0000   0.0000   0.0000   0.0000

          k = 0.6341-0.3805 0.6341 (  1264 PWs)   bands (ev):

    -3.7744  -1.0343   3.2923   4.0063   7.5509   8.9062   9.5602  12.6083

     occupation numbers 
     1.0000   1.0000   1.0000   1.0000   0.0000   0.0000   0.0000   0.0000

          k = 0.5073-0.2536 0.5073 (  1272 PWs)   bands (ev):

    -4.0039  -0.6840   3.1254   4.2861   7.6764   9.0378   9.3348  13.0509

     occupation numbers 
     1.0000   1.0000   1.0000   1.0000   0.0000   0.0000   0.0000   0.0000

          k = 0.3805-0.1268 0.3805 (  1282 PWs)   bands (ev):

    -4.8791   0.9827   3.2836   4.7535   7.9989   9.1149   9.2552  11.4655

     occupation numbers 
     1.0000   1.0000   1.0000   1.0000   0.0000   0.0000   0.0000   0.0000

          k = 0.2536 0.0000 0.2536 (  1275 PWs)   bands (ev):

    -5.5559   2.8374   3.9554   5.2123   8.2997   8.5661   8.7351  10.6482

     occupation numbers 
     1.0000   1.0000   1.0000   1.0000   0.0000   0.0000   0.0000   0.0000

          k = 0.0000 0.5073 0.0000 (  1283 PWs)   bands (ev):

    -5.0385   1.9904   3.7036   3.7036   6.6256   8.5645  11.0460  11.0460

     occupation numbers 
     1.0000   1.0000   1.0000   1.0000   0.0000   0.0000   0.0000   0.0000

          k =-0.1268 0.6341-0.1268 (  1276 PWs)   bands (ev):

    -4.3613   0.6372   2.9508   3.3970   6.8420   8.3470  11.2058  11.5706

     occupation numbers 
     1.0000   1.0000   1.0000   1.0000   0.0000   0.0000   0.0000   0.0000

          k = 0.7609-0.2536 0.7609 (  1271 PWs)   bands (ev):

    -3.4832  -0.7251   2.1193   3.3974   7.0114   9.8374  10.9183  11.2786

     occupation numbers 
     1.0000   1.0000   1.0000   1.0000   0.0000   0.0000   0.0000   0.0000

          k = 0.6341-0.1268 0.6341 (  1272 PWs)   bands (ev):

    -3.2930  -0.9656   1.6842   3.6994   7.3116  10.7132  10.8538  12.1900

     occupation numbers 
     1.0000   1.0000   1.0000   1.0000   0.0000   0.0000   0.0000   0.0000

          k = 0.5073 0.0000 0.5073 (  1278 PWs)   bands (ev):

    -4.1238   0.1333   1.9243   4.2296   7.8626  10.1577  10.4270  11.2696

     occupation numbers 
     1.0000   1.0000   1.0000   1.0000   0.0000   0.0000   0.0000   0.0000

          k = 0.0000 0.7609 0.0000 (  1274 PWs)   bands (ev):

    -3.7856  -0.1419   3.0153   3.0153   6.1377   7.0596  13.2056  13.2056

     occupation numbers 
     1.0000   1.0000   1.0000   1.0000   0.0000   0.0000   0.0000   0.0000

          k = 0.8878-0.1268 0.8878 (  1273 PWs)   bands (ev):

    -2.9317  -1.1778   2.2313   2.9412   6.4183   7.4484  13.4317  13.4676

     occupation numbers 
     1.0000   1.0000   1.0000   1.0000   0.0000   0.0000   0.0000   0.0000

          k = 0.7609 0.0000 0.7609 (  1260 PWs)   bands (ev):

    -2.5240  -1.5492   1.4118   3.1867   6.7134   9.5211  12.6906  13.2179

     occupation numbers 
     1.0000   1.0000   1.0000   1.0000   0.0000   0.0000   0.0000   0.0000

          k = 0.0000-1.0146 0.0000 (  1266 PWs)   bands (ev):

    -2.1168  -2.1168   2.7788   2.7788   6.2451   6.2451  15.0435  15.0435

     occupation numbers 
     1.0000   1.0000   1.0000   1.0000   0.0000   0.0000   0.0000   0.0000

          k =-0.2536 0.5073 0.0000 (  1283 PWs)   bands (ev):

    -4.8030   1.2722   2.9173   4.1328   7.8875   9.1432   9.6663  10.8012

     occupation numbers 
     1.0000   1.0000   1.0000   1.0000   0.0000   0.0000   0.0000   0.0000

          k = 0.6341-0.3805 0.8878 (  1268 PWs)   bands (ev):

    -3.9584  -0.2010   2.3183   3.6621   8.2848   8.9406  10.3468  11.2436

     occupation numbers 
     1.0000   1.0000   1.0000   1.0000   0.0000   0.0000   0.0000   0.0000

          k = 0.5073-0.2536 0.7609 (  1264 PWs)   bands (ev):

    -3.3446  -1.0901   2.1847   3.4470   8.3997   8.6127  11.1967  12.4151

     occupation numbers 
     1.0000   1.0000   1.0000   1.0000   0.0000   0.0000   0.0000   0.0000

          k = 0.7609-0.2536 1.0146 (  1271 PWs)   bands (ev):

    -3.5983  -0.3507   2.2975   2.8785   7.4119   8.1105  11.0180  13.1580

     occupation numbers 
     1.0000   1.0000   1.0000   1.0000   0.0000   0.0000   0.0000   0.0000

          k = 0.6341-0.1268 0.8878 (  1268 PWs)   bands (ev):

    -2.7712  -1.2703   1.6354   2.6871   7.8445   9.6832  10.5537  12.6312

     occupation numbers 
     1.0000   1.0000   1.0000   1.0000   0.0000   0.0000   0.0000   0.0000

          k = 0.5073 0.0000 0.7609 (  1268 PWs)   bands (ev):

    -3.1047  -0.9219   1.4773   3.0431   8.2991   9.9097  10.5217  12.2789

     occupation numbers 
     1.0000   1.0000   1.0000   1.0000   0.0000   0.0000   0.0000   0.0000

          k =-0.2536-1.0146 0.0000 (  1274 PWs)   bands (ev):

    -2.0467  -2.0467   2.2502   2.2502   7.4471   7.4471  13.0211  13.0211

     occupation numbers 
     1.0000   1.0000   1.0000   1.0000   0.0000   0.0000   0.0000   0.0000

          k =-0.5073-1.0146 0.0000 (  1256 PWs)   bands (ev):

    -1.9700  -1.9700   1.8413   1.8413   9.7041   9.7041  10.2614  10.2614

     occupation numbers 
     1.0000   1.0000   1.0000   1.0000   0.0000   0.0000   0.0000   0.0000

     highest occupied, lowest unoccupied level (ev):     5.4976    6.1377

!    total energy              =     -15.84909331 Ry
     estimated scf accuracy    <       0.00000008 Ry

     The total energy is the sum of the following terms:
     one-electron contribution =       4.25081342 Ry
     hartree contribution      =       1.13975740 Ry
     xc contribution           =      -4.74033039 Ry
     ewald contribution        =     -16.49933374 Ry

     convergence has been achieved in   3 iterations

     Forces acting on atoms (cartesian axes, Ry/au):

     atom    1 type  1   force =     0.00000000    0.00000000    0.00000000
     atom    2 type  1   force =     0.00000000    0.00000000    0.00000000
     The non-local contrib.  to forces
     atom    1 type  1   force =    -0.00000000   -0.00000000   -0.00000000
     atom    2 type  1   force =    -0.00000000    0.00000000    0.00000000
     The ionic contribution  to forces
     atom    1 type  1   force =    -0.00000000    0.00000000    0.00000000
     atom    2 type  1   force =     0.00000000    0.00000000    0.00000000
     The local contribution  to forces
     atom    1 type  1   force =     0.00000000   -0.00000000    0.00000000
     atom    2 type  1   force =     0.00000000    0.00000000    0.00000000
     The core correction contribution to forces
     atom    1 type  1   force =     0.00000000    0.00000000    0.00000000
     atom    2 type  1   force =     0.00000000    0.00000000    0.00000000
     The Hubbard contrib.    to forces
     atom    1 type  1   force =     0.00000000    0.00000000    0.00000000
     atom    2 type  1   force =     0.00000000    0.00000000    0.00000000
     The SCF correction term to forces
     atom    1 type  1   force =     0.00000000   -0.00000000    0.00000000
     atom    2 type  1   force =    -0.00000000    0.00000000   -0.00000000

     Total force =     0.000000     Total SCF correction =     0.000000


     Computing stress (Cartesian axis) and pressure

          total   stress  (Ry/bohr**3)                   (kbar)     P=      -57.54
  -0.00039116   0.00000000   0.00000000          -57.54        0.00        0.00
   0.00000000  -0.00039116   0.00000000            0.00      -57.54        0.00
   0.00000000   0.00000000  -0.00039116            0.00        0.00      -57.54

     kinetic stress (kbar)   2087.70      0.00     -0.00
                                0.00   2087.70     -0.00
                                0.00     -0.00   2087.70

     local   stress (kbar)  -1374.16     -0.00      0.00
                               -0.00  -1374.16     -0.00
                                0.00     -0.00  -1374.16

     nonloc. stress (kbar)   2613.95      0.00      0.00
                               -0.00   2613.95     -0.00
                                0.00      0.00   2613.95

     hartree stress (kbar)    196.04      0.00     -0.00
                                0.00    196.04     -0.00
                               -0.00     -0.00    196.04

     exc-cor stress (kbar)   -743.21      0.00      0.00
                                0.00   -743.21      0.00
                                0.00      0.00   -743.21

     corecor stress (kbar)      0.00      0.00      0.00
                                0.00      0.00      0.00
                                0.00      0.00      0.00

     ewald   stress (kbar)  -2837.85     -0.00     -0.00
                               -0.00  -2837.85      0.00
                               -0.00      0.00  -2837.85

     hubbard stress (kbar)      0.00      0.00      0.00
                                0.00      0.00      0.00
                                0.00      0.00      0.00

     DFT-D   stress (kbar)      0.00      0.00      0.00
                                0.00      0.00      0.00
                                0.00      0.00      0.00

     XDM     stress (kbar)      0.00      0.00      0.00
                                0.00      0.00      0.00
                                0.00      0.00      0.00

     dft-nl  stress (kbar)      0.00      0.00      0.00
                                0.00      0.00      0.00
                                0.00      0.00      0.00

     TS-vdW  stress (kbar)      0.00      0.00      0.00
                                0.00      0.00      0.00
                                0.00      0.00      0.00

     MDB     stress (kbar)      0.00      0.00      0.00
                                0.00      0.00      0.00
                                0.00      0.00      0.00

     3D-RISM stress (kbar)      0.00      0.00      0.00
                                0.00      0.00      0.00
                                0.00      0.00      0.00

     Energy error            =      6.2E-03 Ry
     Gradient error          =      0.0E+00 Ry/Bohr
     Cell gradient error     =      5.8E+01 kbar

     number of scf cycles    =   2
     number of bfgs steps    =   1

     enthalpy           old  =     -15.8429160714 Ry
     enthalpy           new  =     -15.8490933097 Ry

     CASE: enthalpy          _new < enthalpy          _old

     new trust radius        =       0.0739160976 bohr
     new conv_thr            =       0.0000000100 Ry

     new unit-cell volume =    266.77664 a.u.^3 (    39.53222 Ang^3 )
     density =      2.35949 g/cm^3

CELL_PARAMETERS (alat= 10.60000000)
  -0.482021859  -0.000000000   0.482021859
   0.000000000   0.482021859   0.482021859
  -0.482021859   0.482021859   0.000000000

ATOMIC_POSITIONS (alat)
Si               0.0000000000        0.0000000000        0.0000000000
Si               0.2410109294        0.2410109294        0.2410109294



     Writing config-only to output data dir ./tmp/silicon.save/ :
     XML data file
     NEW-OLD atomic charge density approx. for the potential
     New effective cutoffs (rho, wfc):  170.88   43.03

     total cpu time spent up to now is        1.2 secs

     per-process dynamical memory:    53.4 Mb

     Self-consistent Calculation

     iteration #  1     ecut=    40.00 Ry     beta= 0.60
     Davidson diagonalization with overlap

---- Real-time Memory Report at c_bands before calling an iterative solver
           114 MiB given to the printing process from OS
            52 MiB allocation reported by mallinfo(arena+hblkhd)
          3633 MiB available memory on the node where the printing process lives
------------------
     ethr =  1.00E-06,  avg # of iterations =  6.3

     total cpu time spent up to now is        1.4 secs

     total energy              =     -15.85308764 Ry
     estimated scf accuracy    <       0.00018616 Ry

     iteration #  2     ecut=    40.00 Ry     beta= 0.60
     Davidson diagonalization with overlap

---- Real-time Memory Report at c_bands before calling an iterative solver
           114 MiB given to the printing process from OS
            55 MiB allocation reported by mallinfo(arena+hblkhd)
          3625 MiB available memory on the node where the printing process lives
------------------
     ethr =  2.33E-06,  avg # of iterations =  1.0

     total cpu time spent up to now is        1.5 secs

     total energy              =     -15.85310055 Ry
     estimated scf accuracy    <       0.00000717 Ry

     iteration #  3     ecut=    40.00 Ry     beta= 0.60
     Davidson diagonalization with overlap

---- Real-time Memory Report at c_bands before calling an iterative solver
           114 MiB given to the printing process from OS
            55 MiB allocation reported by mallinfo(arena+hblkhd)
          3629 MiB available memory on the node where the printing process lives
------------------
     ethr =  8.96E-08,  avg # of iterations =  2.0

     total cpu time spent up to now is        1.6 secs

     total energy              =     -15.85310180 Ry
     estimated scf accuracy    <       0.00000023 Ry

     iteration #  4     ecut=    40.00 Ry     beta= 0.60
     Davidson diagonalization with overlap

---- Real-time Memory Report at c_bands before calling an iterative solver
           114 MiB given to the printing process from OS
            55 MiB allocation reported by mallinfo(arena+hblkhd)
          3631 MiB available memory on the node where the printing process lives
------------------
     ethr =  2.87E-09,  avg # of iterations =  1.9

     total cpu time spent up to now is        1.7 secs

     End of self-consistent calculation

          k = 0.0000 0.0000 0.0000 (  1243 PWs)   bands (ev):

    -5.8413   6.1718   6.1718   6.1718   8.7390   8.7390   8.7390   9.5794

     occupation numbers 
     1.0000   1.0000   1.0000   1.0000   0.0000   0.0000   0.0000   0.0000

          k =-0.1297 0.1297-0.1297 (  1279 PWs)   bands (ev):

    -5.6349   4.5724   5.8798   5.8798   8.6772   9.1663   9.1663  10.8890

     occupation numbers 
     1.0000   1.0000   1.0000   1.0000   0.0000   0.0000   0.0000   0.0000

          k =-0.2593 0.2593-0.2593 (  1287 PWs)   bands (ev):

    -5.0318   2.2282   5.4051   5.4051   8.1996   9.6829   9.6829  13.0445

     occupation numbers 
     1.0000   1.0000   1.0000   1.0000   0.0000   0.0000   0.0000   0.0000

          k =-0.3890 0.3890-0.3890 (  1275 PWs)   bands (ev):

    -4.1224   0.1843   5.0758   5.0758   7.8367   9.6194   9.6194  13.9260

     occupation numbers 
     1.0000   1.0000   1.0000   1.0000   0.0000   0.0000   0.0000   0.0000

          k = 0.5186-0.5186 0.5186 (  1260 PWs)   bands (ev):

    -3.4648  -0.8611   4.9632   4.9632   7.7097   9.5045   9.5045  13.7561

     occupation numbers 
     1.0000   1.0000   1.0000   1.0000   0.0000   0.0000   0.0000   0.0000

          k = 0.0000 0.2593 0.0000 (  1287 PWs)   bands (ev):

    -5.5654   4.8570   5.3544   5.3544   8.1620   9.8858   9.8858  10.5785

     occupation numbers 
     1.0000   1.0000   1.0000   1.0000   0.0000   0.0000   0.0000   0.0000

          k =-0.1297 0.3890-0.1297 (  1284 PWs)   bands (ev):

    -5.0912   2.9491   4.8369   4.9199   8.2936   9.8960  10.6505  10.8898

     occupation numbers 
     1.0000   1.0000   1.0000   1.0000   0.0000   0.0000   0.0000   0.0000

          k =-0.2593 0.5186-0.2593 (  1280 PWs)   bands (ev):

    -4.2640   0.8645   4.3226   4.5669   8.3939   9.8145  10.6409  11.6080

     occupation numbers 
     1.0000   1.0000   1.0000   1.0000   0.0000   0.0000   0.0000   0.0000

          k = 0.6483-0.3890 0.6483 (  1264 PWs)   bands (ev):

    -3.3808  -0.6268   3.8711   4.5931   8.3469   9.6698  10.2715  13.5062

     occupation numbers 
     1.0000   1.0000   1.0000   1.0000   0.0000   0.0000   0.0000   0.0000

          k = 0.5186-0.2593 0.5186 (  1272 PWs)   bands (ev):

    -3.6331  -0.2472   3.6842   4.8945   8.5243   9.7694  10.0393  14.0247

     occupation numbers 
     1.0000   1.0000   1.0000   1.0000   0.0000   0.0000   0.0000   0.0000

          k = 0.3890-0.1297 0.3890 (  1282 PWs)   bands (ev):

    -4.5752   1.5328   3.8314   5.3926   8.8935   9.8548  10.0056  12.4332

     occupation numbers 
     1.0000   1.0000   1.0000   1.0000   0.0000   0.0000   0.0000   0.0000

          k = 0.2593 0.0000 0.2593 (  1275 PWs)   bands (ev):

    -5.2947   3.4943   4.5160   5.8786   9.2336   9.3030   9.5097  11.7062

     occupation numbers 
     1.0000   1.0000   1.0000   1.0000   0.0000   0.0000   0.0000   0.0000

          k = 0.0000 0.5186 0.0000 (  1283 PWs)   bands (ev):

    -4.7473   2.6808   4.2579   4.2579   7.2530   9.2586  11.9395  11.9395

     occupation numbers 
     1.0000   1.0000   1.0000   1.0000   0.0000   0.0000   0.0000   0.0000

          k =-0.1297 0.6483-0.1297 (  1276 PWs)   bands (ev):

    -4.0281   1.2446   3.4621   3.9361   7.4727   9.0178  12.1682  12.4494

     occupation numbers 
     1.0000   1.0000   1.0000   1.0000   0.0000   0.0000   0.0000   0.0000

          k = 0.7780-0.2593 0.7780 (  1271 PWs)   bands (ev):

    -3.0843  -0.2222   2.5846   3.9401   7.6386  10.5794  11.9122  12.0984

     occupation numbers 
     1.0000   1.0000   1.0000   1.0000   0.0000   0.0000   0.0000   0.0000

          k = 0.6483-0.1297 0.6483 (  1272 PWs)   bands (ev):

    -2.8720  -0.4891   2.1156   4.2638   7.9713  11.5981  11.6609  13.1140

     occupation numbers 
     1.0000   1.0000   1.0000   1.0000   0.0000   0.0000   0.0000   0.0000

          k = 0.5186 0.0000 0.5186 (  1278 PWs)   bands (ev):

    -3.7696   0.6931   2.3533   4.8308   8.5969  10.9758  11.2635  12.2916

     occupation numbers 
     1.0000   1.0000   1.0000   1.0000   0.0000   0.0000   0.0000   0.0000

          k = 0.0000 0.7780 0.0000 (  1274 PWs)   bands (ev):

    -3.4196   0.4420   3.5322   3.5322   6.7228   7.6436  14.2129  14.2129

     occupation numbers 
     1.0000   1.0000   1.0000   1.0000   0.0000   0.0000   0.0000   0.0000

          k = 0.9076-0.1297 0.9076 (  1273 PWs)   bands (ev):

    -2.5096  -0.6513   2.6775   3.4552   7.0001   8.0864  14.4443  14.5076

     occupation numbers 
     1.0000   1.0000   1.0000   1.0000   0.0000   0.0000   0.0000   0.0000

          k = 0.7780 0.0000 0.7780 (  1260 PWs)   bands (ev):

    -2.0537  -1.0581   1.7859   3.7169   7.3145  10.2622  13.6589  14.3849

     occupation numbers 
     1.0000   1.0000   1.0000   1.0000   0.0000   0.0000   0.0000   0.0000

          k = 0.0000-1.0373 0.0000 (  1266 PWs)   bands (ev):

    -1.6497  -1.6497   3.2833   3.2833   6.8105   6.8105  16.2785  16.2785

     occupation numbers 
     1.0000   1.0000   1.0000   1.0000   0.0000   0.0000   0.0000   0.0000

          k =-0.2593 0.5186 0.0000 (  1283 PWs)   bands (ev):

    -4.4959   1.8928   3.4141   4.7289   8.5915  10.0771  10.3284  11.6745

     occupation numbers 
     1.0000   1.0000   1.0000   1.0000   0.0000   0.0000   0.0000   0.0000

          k = 0.6483-0.3890 0.9076 (  1268 PWs)   bands (ev):

    -3.5928   0.3192   2.8043   4.2158   9.0208   9.7060  11.1692  12.1050

     occupation numbers 
     1.0000   1.0000   1.0000   1.0000   0.0000   0.0000   0.0000   0.0000

          k = 0.5186-0.2593 0.7780 (  1264 PWs)   bands (ev):

    -2.9223  -0.6493   2.6789   3.9804   9.2303   9.2578  12.0836  13.2560

     occupation numbers 
     1.0000   1.0000   1.0000   1.0000   0.0000   0.0000   0.0000   0.0000

          k = 0.7780-0.2593 1.0373 (  1271 PWs)   bands (ev):

    -3.2159   0.2218   2.7538   3.3675   8.0763   8.7666  11.9220  14.1598

     occupation numbers 
     1.0000   1.0000   1.0000   1.0000   0.0000   0.0000   0.0000   0.0000

          k = 0.6483-0.1297 0.9076 (  1268 PWs)   bands (ev):

    -2.3228  -0.7584   2.0372   3.1618   8.5159  10.4094  11.4462  13.5986

     occupation numbers 
     1.0000   1.0000   1.0000   1.0000   0.0000   0.0000   0.0000   0.0000

          k = 0.5186 0.0000 0.7780 (  1268 PWs)   bands (ev):

    -2.6780  -0.3931   1.8654   3.5462   9.0028  10.6903  11.3680  13.1796

     occupation numbers 
     1.0000   1.0000   1.0000   1.0000   0.0000   0.0000   0.0000   0.0000

          k =-0.2593-1.0373 0.0000 (  1274 PWs)   bands (ev):

    -1.5664  -1.5664   2.6967   2.6967   8.0917   8.0917  14.0080  14.0080

     occupation numbers 
     1.0000   1.0000   1.0000   1.0000   0.0000   0.0000   0.0000   0.0000

          k =-0.5186-1.0373 0.0000 (  1256 PWs)   bands (ev):

    -1.4740  -1.4740   2.2450   2.2450  10.3863  10.3863  11.1807  11.1807

     occupation numbers 
     1.0000   1.0000   1.0000   1.0000   0.0000   0.0000   0.0000   0.0000

     highest occupied, lowest unoccupied level (ev):     6.1718    6.7228

!    total energy              =     -15.85310183 Ry
     estimated scf accuracy    <          4.1E-09 Ry

     The total energy is the sum of the following terms:
     one-electron contribution =       4.74258396 Ry
     hartree contribution      =       1.08414711 Ry
     xc contribution           =      -4.81127026 Ry
     ewald contribution        =     -16.86856264 Ry

     convergence has been achieved in   4 iterations

     Forces acting on atoms (cartesian axes, Ry/au):

     atom    1 type  1   force =    -0.00000000   -0.00000000    0.00000000
     atom    2 type  1   force =    -0.00000000    0.00000000   -0.00000000
     The non-local contrib.  to forces
     atom    1 type  1   force =    -0.00000000   -0.00000000   -0.00000000
     atom    2 type  1   force =    -0.00000000   -0.00000000    0.00000000
     The ionic contribution  to forces
     atom    1 type  1   force =    -0.00000000   -0.00000000    0.00000000
     atom    2 type  1   force =     0.00000000    0.00000000    0.00000000
     The local contribution  to forces
     atom    1 type  1   force =    -0.00000000    0.00000000    0.00000000
     atom    2 type  1   force =    -0.00000000    0.00000000    0.00000000
     The core correction contribution to forces
     atom    1 type  1   force =     0.00000000    0.00000000    0.00000000
     atom    2 type  1   force =     0.00000000    0.00000000    0.00000000
     The Hubbard contrib.    to forces
     atom    1 type  1   force =     0.00000000    0.00000000    0.00000000
     atom    2 type  1   force =     0.00000000    0.00000000    0.00000000
     The SCF correction term to forces
     atom    1 type  1   force =    -0.00000000   -0.00000000   -0.00000000
     atom    2 type  1   force =     0.00000000    0.00000000   -0.00000000

     Total force =     0.000000     Total SCF correction =     0.000000


     Computing stress (Cartesian axis) and pressure

          total   stress  (Ry/bohr**3)                   (kbar)     P=       -3.62
  -0.00002464   0.00000000   0.00000000           -3.62        0.00        0.00
   0.00000000  -0.00002464  -0.00000000            0.00       -3.62       -0.00
   0.00000000  -0.00000000  -0.00002464            0.00       -0.00       -3.62

     kinetic stress (kbar)   2293.25     -0.00     -0.00
                               -0.00   2293.25      0.00
                                0.00     -0.00   2293.25

     local   stress (kbar)  -1431.21      0.00     -0.00
                                0.00  -1431.21     -0.00
                               -0.00     -0.00  -1431.21

     nonloc. stress (kbar)   2842.02     -0.00      0.00
                               -0.00   2842.02     -0.00
                                0.00     -0.00   2842.02

     hartree stress (kbar)    199.27      0.00      0.00
                                0.00    199.27     -0.00
                                0.00     -0.00    199.27

     exc-cor stress (kbar)   -806.41      0.00      0.00
                                0.00   -806.41      0.00
                                0.00      0.00   -806.41

     corecor stress (kbar)      0.00      0.00      0.00
                                0.00      0.00      0.00
                                0.00      0.00      0.00

     ewald   stress (kbar)  -3100.54     -0.00      0.00
                               -0.00  -3100.54      0.00
                                0.00      0.00  -3100.54

     hubbard stress (kbar)      0.00      0.00      0.00
                                0.00      0.00      0.00
                                0.00      0.00      0.00

     DFT-D   stress (kbar)      0.00      0.00      0.00
                                0.00      0.00      0.00
                                0.00      0.00      0.00

     XDM     stress (kbar)      0.00      0.00      0.00
                                0.00      0.00      0.00
                                0.00      0.00      0.00

     dft-nl  stress (kbar)      0.00      0.00      0.00
                                0.00      0.00      0.00
                                0.00      0.00      0.00

     TS-vdW  stress (kbar)      0.00      0.00      0.00
                                0.00      0.00      0.00
                                0.00      0.00      0.00

     MDB     stress (kbar)      0.00      0.00      0.00
                                0.00      0.00      0.00
                                0.00      0.00      0.00

     3D-RISM stress (kbar)      0.00      0.00      0.00
                                0.00      0.00      0.00
                                0.00      0.00      0.00

     Energy error            =      4.0E-03 Ry
     Gradient error          =      2.6E-32 Ry/Bohr
     Cell gradient error     =      3.6E+00 kbar

     number of scf cycles    =   3
     number of bfgs steps    =   2

     enthalpy           old  =     -15.8490933097 Ry
     enthalpy           new  =     -15.8531018302 Ry

     CASE: enthalpy          _new < enthalpy          _old

     new trust radius        =       0.0046872758 bohr
     new conv_thr            =       0.0000000100 Ry

     new unit-cell volume =    265.62990 a.u.^3 (    39.36229 Ang^3 )
     density =      2.36967 g/cm^3

CELL_PARAMETERS (alat= 10.60000000)
  -0.481330214  -0.000000000   0.481330214
   0.000000000   0.481330214   0.481330214
  -0.481330214   0.481330214   0.000000000

ATOMIC_POSITIONS (alat)
Si              -0.0000000000       -0.0000000000        0.0000000000
Si               0.2406651068        0.2406651068        0.2406651068



     Writing config-only to output data dir ./tmp/silicon.save/ :
     XML data file
     NEW-OLD atomic charge density approx. for the potential
     New effective cutoffs (rho, wfc):  171.37   43.15

     total cpu time spent up to now is        1.8 secs

     per-process dynamical memory:    53.4 Mb

     Self-consistent Calculation

     iteration #  1     ecut=    40.00 Ry     beta= 0.60
     Davidson diagonalization with overlap

[...]

     Dynamical RAM for          rho,v,vnew:       1.17 MB

     Dynamical RAM for               rhoin:       0.39 MB

     Dynamical RAM for            rho*nmix:       2.24 MB

     Dynamical RAM for           G-vectors:       0.60 MB

     Dynamical RAM for          h,s,v(r/c):       0.01 MB

     Dynamical RAM for          <psi|beta>:       0.00 MB

     Dynamical RAM for                 psi:       0.28 MB

     Dynamical RAM for                hpsi:       0.28 MB

     Dynamical RAM for      wfcinit/wfcrot:       0.28 MB

     Estimated static dynamical RAM per process >       8.37 MB

     Estimated max dynamical RAM per process >      11.18 MB

     Initial potential from superposition of free atoms

     starting charge       7.9990, renormalised to       8.0000
     Starting wfcs are    8 randomized atomic wfcs

     total cpu time spent up to now is        2.3 secs

     per-process dynamical memory:    52.6 Mb

     Self-consistent Calculation

     iteration #  1     ecut=    40.00 Ry     beta= 0.60
     Davidson diagonalization with overlap

---- Real-time Memory Report at c_bands before calling an iterative solver
           114 MiB given to the printing process from OS
            51 MiB allocation reported by mallinfo(arena+hblkhd)
          3818 MiB available memory on the node where the printing process lives
------------------
     ethr =  1.00E-06,  avg # of iterations = 13.0

     total cpu time spent up to now is        2.7 secs

     total energy              =     -15.85078581 Ry
     estimated scf accuracy    <       0.06318842 Ry

     iteration #  2     ecut=    40.00 Ry     beta= 0.60
     Davidson diagonalization with overlap

---- Real-time Memory Report at c_bands before calling an iterative solver
           114 MiB given to the printing process from OS
            54 MiB allocation reported by mallinfo(arena+hblkhd)
          3830 MiB available memory on the node where the printing process lives
------------------
     ethr =  7.90E-04,  avg # of iterations =  1.0

     total cpu time spent up to now is        2.8 secs

     total energy              =     -15.85269570 Ry
     estimated scf accuracy    <       0.00468463 Ry

     iteration #  3     ecut=    40.00 Ry     beta= 0.60
     Davidson diagonalization with overlap

---- Real-time Memory Report at c_bands before calling an iterative solver
           114 MiB given to the printing process from OS
            54 MiB allocation reported by mallinfo(arena+hblkhd)
          3830 MiB available memory on the node where the printing process lives
------------------
     ethr =  5.86E-05,  avg # of iterations =  1.2

     total cpu time spent up to now is        2.9 secs

     total energy              =     -15.85295158 Ry
     estimated scf accuracy    <       0.00011363 Ry

     iteration #  4     ecut=    40.00 Ry     beta= 0.60
     Davidson diagonalization with overlap

---- Real-time Memory Report at c_bands before calling an iterative solver
           114 MiB given to the printing process from OS
            54 MiB allocation reported by mallinfo(arena+hblkhd)
          3838 MiB available memory on the node where the printing process lives
------------------
     ethr =  1.42E-06,  avg # of iterations =  2.6

     total cpu time spent up to now is        3.0 secs

     total energy              =     -15.85296745 Ry
     estimated scf accuracy    <       0.00000118 Ry

     iteration #  5     ecut=    40.00 Ry     beta= 0.60
     Davidson diagonalization with overlap

---- Real-time Memory Report at c_bands before calling an iterative solver
           115 MiB given to the printing process from OS
            54 MiB allocation reported by mallinfo(arena+hblkhd)
          3831 MiB available memory on the node where the printing process lives
------------------
     ethr =  1.48E-08,  avg # of iterations =  3.1

     total cpu time spent up to now is        3.2 secs

     total energy              =     -15.85296837 Ry
     estimated scf accuracy    <       0.00000006 Ry

     iteration #  6     ecut=    40.00 Ry     beta= 0.60
     Davidson diagonalization with overlap

---- Real-time Memory Report at c_bands before calling an iterative solver
           115 MiB given to the printing process from OS
            55 MiB allocation reported by mallinfo(arena+hblkhd)
          3841 MiB available memory on the node where the printing process lives
------------------
     ethr =  7.62E-10,  avg # of iterations =  2.3

     total cpu time spent up to now is        3.3 secs

     total energy              =     -15.85296841 Ry
     estimated scf accuracy    <       0.00000007 Ry

     iteration #  7     ecut=    40.00 Ry     beta= 0.60
     Davidson diagonalization with overlap

---- Real-time Memory Report at c_bands before calling an iterative solver
           115 MiB given to the printing process from OS
            55 MiB allocation reported by mallinfo(arena+hblkhd)
          3837 MiB available memory on the node where the printing process lives
------------------
     ethr =  7.62E-10,  avg # of iterations =  1.0

     total cpu time spent up to now is        3.4 secs

     End of self-consistent calculation

          k = 0.0000 0.0000 0.0000 (  1139 PWs)   bands (ev):

    -5.8256   6.2171   6.2171   6.2171   8.7865   8.7865   8.7865   9.6765

     occupation numbers 
     1.0000   1.0000   1.0000   1.0000   0.0000   0.0000   0.0000   0.0000

          k =-0.1298 0.1298-0.1298 (  1137 PWs)   bands (ev):

    -5.6184   4.6164   5.9239   5.9239   8.7356   9.2155   9.2155  10.9751

     occupation numbers 
     1.0000   1.0000   1.0000   1.0000   0.0000   0.0000   0.0000   0.0000

          k =-0.2597 0.2597-0.2597 (  1131 PWs)   bands (ev):

    -5.0129   2.2658   5.4476   5.4476   8.2610   9.7322   9.7322  13.1267

     occupation numbers 
     1.0000   1.0000   1.0000   1.0000   0.0000   0.0000   0.0000   0.0000

          k =-0.3895 0.3895-0.3895 (  1143 PWs)   bands (ev):

    -4.0996   0.2144   5.1175   5.1175   7.8985   9.6649   9.6649  13.9813

     occupation numbers 
     1.0000   1.0000   1.0000   1.0000   0.0000   0.0000   0.0000   0.0000

          k = 0.5194-0.5194 0.5194 (  1158 PWs)   bands (ev):

    -3.4380  -0.8362   5.0047   5.0047   7.7716   9.5485   9.5485  13.8082

     occupation numbers 
     1.0000   1.0000   1.0000   1.0000   0.0000   0.0000   0.0000   0.0000

          k = 0.0000 0.2597 0.0000 (  1151 PWs)   bands (ev):

    -5.5487   4.9065   5.3957   5.3957   8.2075   9.9384   9.9384  10.6625

     occupation numbers 
     1.0000   1.0000   1.0000   1.0000   0.0000   0.0000   0.0000   0.0000

          k =-0.1298 0.3895-0.1298 (  1134 PWs)   bands (ev):

    -5.0726   2.9912   4.8765   4.9624   8.3405   9.9597  10.7048  10.9382

     occupation numbers 
     1.0000   1.0000   1.0000   1.0000   0.0000   0.0000   0.0000   0.0000

          k =-0.2597 0.5194-0.2597 (  1141 PWs)   bands (ev):

    -4.2420   0.8986   4.3634   4.6058   8.4439   9.8713  10.6915  11.6605

     occupation numbers 
     1.0000   1.0000   1.0000   1.0000   0.0000   0.0000   0.0000   0.0000

          k = 0.6492-0.3895 0.6492 (  1133 PWs)   bands (ev):

    -3.3540  -0.5997   3.9102   4.6326   8.3994   9.7222  10.3189  13.5662

     occupation numbers 
     1.0000   1.0000   1.0000   1.0000   0.0000   0.0000   0.0000   0.0000

          k = 0.5194-0.2597 0.5194 (  1131 PWs)   bands (ev):

    -3.6078  -0.2180   3.7219   4.9354   8.5807   9.8193  10.0862  14.0891

     occupation numbers 
     1.0000   1.0000   1.0000   1.0000   0.0000   0.0000   0.0000   0.0000

          k = 0.3895-0.1298 0.3895 (  1130 PWs)   bands (ev):

    -4.5545   1.5696   3.8683   5.4355   8.9534   9.9041  10.0560  12.4983

     occupation numbers 
     1.0000   1.0000   1.0000   1.0000   0.0000   0.0000   0.0000   0.0000

          k = 0.2597 0.0000 0.2597 (  1151 PWs)   bands (ev):

    -5.2770   3.5381   4.5536   5.9234   9.2953   9.3522   9.5617  11.7777

     occupation numbers 
     1.0000   1.0000   1.0000   1.0000   0.0000   0.0000   0.0000   0.0000

          k = 0.0000 0.5194 0.0000 (  1118 PWs)   bands (ev):

    -4.7274   2.7274   4.2952   4.2952   7.2952   9.3042  11.9993  11.9993

     occupation numbers 
     1.0000   1.0000   1.0000   1.0000   0.0000   0.0000   0.0000   0.0000

          k =-0.1298 0.6492-0.1298 (  1130 PWs)   bands (ev):

    -4.0055   1.2855   3.4966   3.9723   7.5150   9.0621  12.2333  12.5081

     occupation numbers 
     1.0000   1.0000   1.0000   1.0000   0.0000   0.0000   0.0000   0.0000

          k = 0.7791-0.2597 0.7791 (  1128 PWs)   bands (ev):

    -3.0573  -0.1884   2.6161   3.9766   7.6806  10.6286  11.9801  12.1531

     occupation numbers 
     1.0000   1.0000   1.0000   1.0000   0.0000   0.0000   0.0000   0.0000

          k = 0.6492-0.1298 0.6492 (  1137 PWs)   bands (ev):

    -2.8434  -0.4572   2.1448   4.3017   8.0153  11.6570  11.7146  13.1769

     occupation numbers 
     1.0000   1.0000   1.0000   1.0000   0.0000   0.0000   0.0000   0.0000

          k = 0.5194 0.0000 0.5194 (  1135 PWs)   bands (ev):

    -3.7455   0.7308   2.3822   4.8712   8.6457  11.0304  11.3196  12.3611

     occupation numbers 
     1.0000   1.0000   1.0000   1.0000   0.0000   0.0000   0.0000   0.0000

          k = 0.0000 0.7791 0.0000 (  1126 PWs)   bands (ev):

    -3.3947   0.4815   3.5669   3.5669   6.7622   7.6827  14.2799  14.2799

     occupation numbers 
     1.0000   1.0000   1.0000   1.0000   0.0000   0.0000   0.0000   0.0000

          k = 0.9089-0.1298 0.9089 (  1135 PWs)   bands (ev):

    -2.4811  -0.6157   2.7075   3.4898   7.0392   8.1292  14.5090  14.5795

     occupation numbers 
     1.0000   1.0000   1.0000   1.0000   0.0000   0.0000   0.0000   0.0000

          k = 0.7791 0.0000 0.7791 (  1136 PWs)   bands (ev):

    -2.0218  -1.0249   1.8110   3.7525   7.3547  10.3116  13.7234  14.2138

     occupation numbers 
     1.0000   1.0000   1.0000   1.0000   0.0000   0.0000   0.0000   0.0000

          k = 0.0000-1.0388 0.0000 (  1138 PWs)   bands (ev):

    -1.6182  -1.6182   3.3172   3.3172   6.8485   6.8485  16.3608  16.3608

     occupation numbers 
     1.0000   1.0000   1.0000   1.0000   0.0000   0.0000   0.0000   0.0000

          k =-0.2597 0.5194 0.0000 (  1131 PWs)   bands (ev):

    -4.4750   1.9346   3.4475   4.7690   8.6387  10.1377  10.3742  11.7330

     occupation numbers 
     1.0000   1.0000   1.0000   1.0000   0.0000   0.0000   0.0000   0.0000

          k = 0.6492-0.3895 0.9089 (  1136 PWs)   bands (ev):

    -3.5680   0.3540   2.8372   4.2529   9.0694   9.7573  11.2243  12.1633

     occupation numbers 
     1.0000   1.0000   1.0000   1.0000   0.0000   0.0000   0.0000   0.0000

          k = 0.5194-0.2597 0.7791 (  1128 PWs)   bands (ev):

    -2.8935  -0.6199   2.7124   4.0162   9.2858   9.3010  12.1426  13.3136

     occupation numbers 
     1.0000   1.0000   1.0000   1.0000   0.0000   0.0000   0.0000   0.0000

          k = 0.7791-0.2597 1.0388 (  1129 PWs)   bands (ev):

    -3.1900   0.2605   2.7845   3.4003   8.1209   8.8103  11.9827  14.2263

     occupation numbers 
     1.0000   1.0000   1.0000   1.0000   0.0000   0.0000   0.0000   0.0000

          k = 0.6492-0.1298 0.9089 (  1138 PWs)   bands (ev):

    -2.2924  -0.7239   2.0642   3.1937   8.5608  10.4577  11.5061  13.6627

     occupation numbers 
     1.0000   1.0000   1.0000   1.0000   0.0000   0.0000   0.0000   0.0000

          k = 0.5194 0.0000 0.7791 (  1138 PWs)   bands (ev):

    -2.6491  -0.3574   1.8915   3.5799   9.0496  10.7424  11.4246  13.2391

     occupation numbers 
     1.0000   1.0000   1.0000   1.0000   0.0000   0.0000   0.0000   0.0000

          k =-0.2597-1.0388 0.0000 (  1134 PWs)   bands (ev):

    -1.5339  -1.5339   2.7266   2.7266   8.1349   8.1349  14.0737  14.0737

     occupation numbers 
     1.0000   1.0000   1.0000   1.0000   0.0000   0.0000   0.0000   0.0000

          k =-0.5194-1.0388 0.0000 (  1144 PWs)   bands (ev):

    -1.4404  -1.4404   2.2720   2.2720  10.4320  10.4320  11.2421  11.2421

     occupation numbers 
     1.0000   1.0000   1.0000   1.0000   0.0000   0.0000   0.0000   0.0000

     highest occupied, lowest unoccupied level (ev):     6.2171    6.7622

!    total energy              =     -15.85296841 Ry
     estimated scf accuracy    <          3.5E-10 Ry

     The total energy is the sum of the following terms:
     one-electron contribution =       4.77528968 Ry
     hartree contribution      =       1.08050207 Ry
     xc contribution           =      -4.81595830 Ry
     ewald contribution        =     -16.89280187 Ry

     convergence has been achieved in   7 iterations

     Forces acting on atoms (cartesian axes, Ry/au):

     atom    1 type  1   force =     0.00000000    0.00000000    0.00000000
     atom    2 type  1   force =     0.00000000    0.00000000    0.00000000
     The non-local contrib.  to forces
     atom    1 type  1   force =     0.00000000    0.00000000    0.00000000
     atom    2 type  1   force =     0.00000000    0.00000000    0.00000000
     The ionic contribution  to forces
     atom    1 type  1   force =     0.00000000    0.00000000    0.00000000
     atom    2 type  1   force =     0.00000000   -0.00000000   -0.00000000
     The local contribution  to forces
     atom    1 type  1   force =    -0.00000000    0.00000000    0.00000000
     atom    2 type  1   force =     0.00000000    0.00000000   -0.00000000
     The core correction contribution to forces
     atom    1 type  1   force =     0.00000000    0.00000000    0.00000000
     atom    2 type  1   force =     0.00000000    0.00000000    0.00000000
     The Hubbard contrib.    to forces
     atom    1 type  1   force =     0.00000000    0.00000000    0.00000000
     atom    2 type  1   force =     0.00000000    0.00000000    0.00000000
     The SCF correction term to forces
     atom    1 type  1   force =    -0.00000000   -0.00000000    0.00000000
     atom    2 type  1   force =     0.00000000    0.00000000   -0.00000000

     Total force =     0.000000     Total SCF correction =     0.000000


     Computing stress (Cartesian axis) and pressure

          total   stress  (Ry/bohr**3)                   (kbar)     P=        0.19
   0.00000126  -0.00000000   0.00000000            0.19       -0.00        0.00
   0.00000000   0.00000126  -0.00000000            0.00        0.19       -0.00
  -0.00000000  -0.00000000   0.00000126           -0.00       -0.00        0.19

     kinetic stress (kbar)   2307.67     -0.00     -0.00
                               -0.00   2307.67     -0.00
                               -0.00     -0.00   2307.67

     local   stress (kbar)  -1434.89      0.00      0.00
                                0.00  -1434.89     -0.00
                                0.00     -0.00  -1434.89

     nonloc. stress (kbar)   2857.04      0.00      0.00
                                0.00   2857.04     -0.00
                                0.00     -0.00   2857.04

     hartree stress (kbar)    199.46      0.00      0.00
                                0.00    199.46     -0.00
                                0.00     -0.00    199.46

     exc-cor stress (kbar)   -810.70      0.00      0.00
                                0.00   -810.70      0.00
                                0.00      0.00   -810.70

     corecor stress (kbar)      0.00      0.00      0.00
                                0.00      0.00      0.00
                                0.00      0.00      0.00

     ewald   stress (kbar)  -3118.39      0.00      0.00
                                0.00  -3118.39      0.00
                                0.00      0.00  -3118.39

     hubbard stress (kbar)      0.00      0.00      0.00
                                0.00      0.00      0.00
                                0.00      0.00      0.00

     DFT-D   stress (kbar)      0.00      0.00      0.00
                                0.00      0.00      0.00
                                0.00      0.00      0.00

     XDM     stress (kbar)      0.00      0.00      0.00
                                0.00      0.00      0.00
                                0.00      0.00      0.00

     dft-nl  stress (kbar)      0.00      0.00      0.00
                                0.00      0.00      0.00
                                0.00      0.00      0.00

     TS-vdW  stress (kbar)      0.00      0.00      0.00
                                0.00      0.00      0.00
                                0.00      0.00      0.00

     MDB     stress (kbar)      0.00      0.00      0.00
                                0.00      0.00      0.00
                                0.00      0.00      0.00

     3D-RISM stress (kbar)      0.00      0.00      0.00
                                0.00      0.00      0.00
                                0.00      0.00      0.00


     Writing all to output data dir ./tmp/silicon.save/ :
     XML data file, charge density, pseudopotentials, collected wavefunctions
 
     init_run     :      0.11s CPU      0.12s WALL (       2 calls)
     electrons    :      3.08s CPU      3.12s WALL (       5 calls)
     update_pot   :      0.00s CPU      0.00s WALL (       3 calls)
     forces       :      0.02s CPU      0.02s WALL (       5 calls)
     stress       :      0.13s CPU      0.14s WALL (       5 calls)

     Called by init_run:
     wfcinit      :      0.09s CPU      0.09s WALL (       2 calls)
     wfcinit:atom :      0.00s CPU      0.00s WALL (      58 calls)
     wfcinit:wfcr :      0.07s CPU      0.07s WALL (      58 calls)
     potinit      :      0.01s CPU      0.01s WALL (       2 calls)
     hinit0       :      0.01s CPU      0.02s WALL (       2 calls)

     Called by electrons:
     c_bands      :      2.61s CPU      2.64s WALL (      23 calls)
     sum_band     :      0.44s CPU      0.44s WALL (      23 calls)
     v_of_rho     :      0.02s CPU      0.02s WALL (      26 calls)
     v_h          :      0.00s CPU      0.00s WALL (      26 calls)
     v_xc         :      0.01s CPU      0.02s WALL (      26 calls)
     mix_rho      :      0.01s CPU      0.01s WALL (      23 calls)

     Called by c_bands:
     init_us_2    :      0.07s CPU      0.07s WALL (    1682 calls)
     cegterg      :      2.54s CPU      2.57s WALL (     667 calls)

     Called by sum_band:
     sum_band:wei :      0.00s CPU      0.00s WALL (      23 calls)
     sum_band:loo :      0.43s CPU      0.43s WALL (      23 calls)
     sum_band:buf :      0.01s CPU      0.01s WALL (     667 calls)
     sum_band:ini :      0.03s CPU      0.03s WALL (     667 calls)

     Called by *egterg:
     cdiaghg      :      0.07s CPU      0.07s WALL (    2393 calls)
     cegterg:over :      0.07s CPU      0.07s WALL (    1871 calls)
     cegterg:upda :      0.04s CPU      0.04s WALL (    1871 calls)
     cegterg:last :      0.05s CPU      0.05s WALL (    1517 calls)
     h_psi        :      2.33s CPU      2.36s WALL (    2596 calls)
     g_psi        :      0.01s CPU      0.01s WALL (    1871 calls)

     Called by h_psi:
     h_psi:calbec :      0.04s CPU      0.04s WALL (    2596 calls)
     vloc_psi     :      2.25s CPU      2.28s WALL (    2596 calls)
                                        0.00s GPU  (    2596 calls)
     add_vuspsi   :      0.03s CPU      0.03s WALL (    2596 calls)

     General routines
     calbec       :      0.07s CPU      0.07s WALL (    5061 calls)
     fft          :      0.01s CPU      0.01s WALL (     103 calls)
     ffts         :      0.00s CPU      0.00s WALL (      23 calls)
     fftw         :      2.21s CPU      2.23s WALL (   37402 calls)
 
     Parallel routines
 
     PWSCF        :      3.37s CPU      3.43s WALL

 
   This run was terminated on:  11:26:54  28Feb2026            

=------------------------------------------------------------------------------=
   JOB DONE.
=------------------------------------------------------------------------------=
